16
Lattice="5.43096 5.43096 0.0 5.43096 0.0 5.43096 0.0 5.43096 5.43096" Properties=species:S:1:pos:R:3:masses:R:1:forces:R:3 energy=-2462.4769424614865 stress="-0.014820901214644265 -0.01557470866708033 -0.005781638889147252 -0.01557470866708033 -0.0047973738599006496 0.0135979151894983 -0.005781638889147252 0.0135979151894983 -0.004756056764456529" free_energy=-2462.4769424614865 pbc="T T T"
Si       0.09972678      -0.02068351      -0.04557743      28.08550000      -0.33648618      -0.49672247       0.96134754
Si       1.43339991       1.18521479       1.59897180      28.08550000      -1.42965058       1.61206289      -1.96754978
Si      -0.10758289       2.76321767       2.75046847      28.08550000       1.88071977      -0.53454057      -0.48149948
Si       1.50678482       3.92813582       4.04282464      28.08550000      -1.14124917       1.83131371      -0.45745170
Si       2.86837446      -0.03325038       2.73159308      28.08550000       0.89224297      -0.71371354       1.47523058
Si       4.24337347       1.57638970       4.11219467      28.08550000      -1.58451635      -2.20272215       1.37846377
Si       2.63904836       2.78791788       5.71902841      28.08550000       1.41272783       0.60749510      -3.75212211
Si       4.18050070       4.00837220       6.58843482      28.08550000       0.21762562       1.08964687       2.86787167
Si       2.60953181       2.63158105      -0.04900964      28.08550000      -0.53567082       1.33829851       1.47327526
Si       4.05408195       4.03322869       1.70005328      28.08550000       0.45992561      -0.40197835      -2.29028672
Si       2.52630759       5.68412200       2.48616260      28.08550000       2.19139644      -2.76047541       2.98546776
Si       4.00814780       6.85641882       4.01827420      28.08550000      -1.56978572       0.21876591      -0.68009431
Si       5.66541808       2.32193637       2.62361829      28.08550000      -0.95835041       3.84808674       1.16447189
Si       6.61727572       4.16460070       4.03215422      28.08550000       1.01294881      -0.73419341       0.08929775
Si       5.20295363       5.67302025       5.52688110      28.08550000      -0.53908756      -2.21700591      -2.89808419
Si       6.76225781       6.74937796       6.47352748      28.08550000       0.02720998      -0.48431792       0.13166208
16
Lattice="5.43096 5.43096 0.0 5.43096 0.0 5.43096 0.0 5.43096 5.43096" Properties=species:S:1:pos:R:3:masses:R:1:forces:R:3 energy=-2461.922420317944 stress="-0.021717183523106236 0.007882383653061643 -0.02436882289294223 0.007882383653061643 -0.013498754160432412 0.00536112267329376 -0.02436882289294223 0.00536112267329376 -0.019646737962517532" free_energy=-2461.922420317944 pbc="T T T"
Si      -0.12998041       0.27726547       0.24962234      28.08550000      -0.58803674      -2.64511232      -2.19633836
Si       1.25986391       1.26970733       1.55388541      28.08550000       2.91875714       1.38579167      -1.43786937
Si       0.04046622       2.68572250       2.72521375      28.08550000      -0.43669081      -0.99657937      -0.84595232
Si       1.22196100       3.84249852       4.03640899      28.08550000       0.92672404       4.92823313       1.57268876
Si       2.74799632      -0.18268193       2.46045432      28.08550000       0.02177236       1.47943973       1.05557410
Si       3.95619787       1.07580238       4.03791389      28.08550000      -0.14447543       2.58361282      -0.19411469
Si       2.77196306       3.12686265       5.33340682      28.08550000       0.59916447      -3.89547242       0.94533625
Si       4.23345855       3.99565458       6.88123975      28.08550000      -0.31525272       0.06025869      -1.84102296
Si       2.83617218       2.74656735      -0.10885403      28.08550000      -2.13579557       1.06574564       1.67394985
Si       4.06838956       4.11935734       1.37214169      28.08550000      -1.12290229       0.70797021       0.17314554
Si       2.85884186       5.51297850       3.02038904      28.08550000      -1.85562889      -0.97677262      -2.11002823
Si       4.23635814       6.96320679       4.14601799      28.08550000      -0.73707741      -1.26382728       0.07930002
Si       5.20128801       2.71530559       2.66809878      28.08550000       2.23901713      -1.44006277       0.85994221
Si       6.94889812       4.12581142       3.88493816      28.08550000      -2.76276755      -1.80662135       1.53799198
Si       5.22012900       5.36714542       5.36125051      28.08550000       3.31573932      -0.07829806       0.08235937
Si       6.83759662       6.66839610       6.68747261      28.08550000       0.07745320       0.89169430       0.64503758
16
Lattice="5.43096 5.43096 0.0 5.43096 0.0 5.43096 0.0 5.43096 5.43096" Properties=species:S:1:pos:R:3:masses:R:1:forces:R:3 energy=-2463.357141462776 stress="-0.012632013313782421 -0.0014800701745760474 -0.000781352182732144 -0.0014800701745760474 -0.020262821763473198 0.020178351257231882 -0.000781352182732144 0.020178351257231882 -0.02263901383034839" free_energy=-2463.357141462776 pbc="T T T"
Si       0.15000253       0.21386150       0.13826607      28.08550000      -1.00443794      -2.61143602      -1.50176025
Si       1.41142920       1.28958389       1.56923231      28.08550000       0.05676610       2.83817054      -1.12290075
Si      -0.12683562       2.64926404       2.75433155      28.08550000       1.19300779       0.73856043      -0.30931733
Si       1.35280360       4.02499182       3.98369427      28.08550000      -1.06174192      -0.62650867       2.40797717
Si       2.77683619      -0.10929058       2.51427728      28.08550000      -0.57990202       1.08474969       4.46136348
Si       4.11725801       1.30354360       4.19326665      28.08550000       0.07800598       0.90633930      -1.60244902
Si       2.77197745       2.75160142       5.51353159      28.08550000      -0.39756993      -0.12098866      -1.21987890
Si       4.16887593       4.24758168       6.75453809      28.08550000      -1.43054815      -5.48656642       1.74741193
Si       2.62927672       2.61990888      -0.13401943      28.08550000       0.76408762       0.63854092       0.97888401
Si       4.09029590       4.14263991       1.25638144      28.08550000      -0.43651212      -0.60290774       0.55123320
Si       2.54030893       5.38903513       2.77906741      28.08550000       2.23884435       1.12048083      -2.06638324
Si       4.27242359       6.61056985       4.13808658      28.08550000      -5.25093022       2.96142434      -3.48324900
Si       5.62344235       2.77630895       2.68160179      28.08550000      -3.13399678      -0.87517908      -0.63382037
Si       6.66070402       4.16364838       4.03034521      28.08550000       1.77961114       0.12655741       0.79416696
Si       5.21076470       5.45940006       5.50307077      28.08550000       5.40793798      -0.52942047      -0.61947002
Si       6.66003648       6.77695147       6.63392841      28.08550000       1.77737788       0.43818359       1.61819188
16
Lattice="5.43096 5.43096 0.0 5.43096 0.0 5.43096 0.0 5.43096 5.43096" Properties=species:S:1:pos:R:3:masses:R:1:forces:R:3 energy=-2464.228303563621 stress="-0.011500843056290054 0.019807415555911333 0.00814038596016826 0.019807415555911333 -0.012316167073054033 -0.010755299022942817 0.00814038596016826 -0.010755299022942817 -0.006005669362222039" free_energy=-2464.228303563621 pbc="T T T"
Si       0.31029685       0.00472207       0.06895048      28.08550000      -2.38107880       0.60784992      -0.14964283
Si       1.24789634       1.48670075       1.47917265      28.08550000       0.61956875       0.89181437      -0.40807623
Si      -0.20405999       2.80281396       2.70616937      28.08550000       0.35644951       0.70679059       0.59463599
Si       1.36779219       3.99401564       4.19540059      28.08550000       0.44364179      -0.99528147      -1.72780007
Si       2.60835553       0.16836400       2.69870159      28.08550000       1.70390166      -1.08833278       0.41731112
Si       4.03625013       1.21569885       4.27407948      28.08550000       0.70070710       1.28854870      -0.72546528
Si       2.59243742       2.68537281       5.68141251      28.08550000       1.41884500      -0.34717117      -1.29989857
Si       4.16139570       4.27195771       6.53923588      28.08550000      -2.37653849      -1.21966421       2.69211492
Si       2.63854417       2.59309529      -0.12946238      28.08550000      -0.54100406       2.20430492       1.82503507
Si       4.07800990       4.22184693       1.18371556      28.08550000       0.77126897      -2.36587921       0.01700116
Si       2.77296415       5.28200110       2.72741722      28.08550000      -0.24401877       0.44358959       0.81877653
Si       4.10055072       6.74040386       4.22899537      28.08550000      -1.80209775       1.14627593      -3.57712641
Si       5.67625811       2.58635515       2.51108132      28.08550000      -3.60374761       2.73116072       2.70710779
Si       6.74630183       4.18630523       4.09126623      28.08550000       1.52525370      -2.52524467      -2.46824074
Si       5.47578867       5.50581721       5.26561825      28.08550000       0.83202491      -0.69795808       0.95571323
Si       6.70081828       6.56412945       6.78784590      28.08550000       2.57682383      -0.78080288       0.32855433
16
Lattice="5.43096 5.43096 0.0 5.43096 0.0 5.43096 0.0 5.43096 5.43096" Properties=species:S:1:pos:R:3:masses:R:1:forces:R:3 energy=-2465.4392891762413 stress="-0.00872708871547477 0.01877357001213179 0.002921577726737582 0.01877357001213179 -0.01040639910585913 0.007378315088643371 0.002921577726737582 0.007378315088643371 -0.0037984183078294707" free_energy=-2465.4392891762413 pbc="T T T"
Si       0.01109723       0.05331162      -0.30805493      28.08550000      -0.04119113      -0.85191599       2.92302749
Si       1.35288393       1.40202392       1.26507280      28.08550000      -0.50257121      -0.69757576      -0.63377975
Si       0.10441297       2.68617608       2.81684596      28.08550000       0.72942067      -0.79872270      -0.95828921
Si       1.38083001       3.95928750       4.11758296      28.08550000       1.74781302       1.52316520      -0.21222117
Si       2.71573018       0.09571817       2.64455118      28.08550000      -0.30191795      -0.81187672       0.23402798
Si       3.94508287       1.40206995       4.12009270      28.08550000       0.09425613      -0.13187496      -0.95854170
Si       2.79538518       2.76095563       5.50206754      28.08550000      -0.68307602      -0.00346945       1.86466554
Si       4.28878509       4.06606145       7.00006336      28.08550000      -2.49562607       0.02595940      -0.61967313
Si       2.51167709       2.67589694      -0.26718413      28.08550000       0.20652077       2.03077629       1.84385735
Si       4.16937067       3.96955271       1.47750425      28.08550000      -1.22917550       1.30283323      -3.53240644
Si       2.89326855       5.37842774       2.74523127      28.08550000      -0.70178851       0.30872958       0.91534768
Si       4.14509763       7.00372473       4.17449134      28.08550000      -0.66068043      -2.37463459      -0.45883469
Si       5.31308932       2.51804420       2.60926715      28.08550000       1.39052482       0.38865515       1.88564163
Si       6.64436822       4.18943451       3.95024094      28.08550000      -0.66130084      -0.19983308      -0.02463682
Si       5.25796655       5.48913687       5.58486009      28.08550000       1.66182376       0.07514049      -1.64145728
Si       6.78055451       6.65977798       6.87696750      28.08550000       1.44696824       0.21464392      -0.62672721
16
Lattice="5.43096 5.43096 0.0 5.43096 0.0 5.43096 0.0 5.43096 5.43096" Properties=species:S:1:pos:R:3:masses:R:1:forces:R:3 energy=-2460.551010810532 stress="-0.03343012100267611 0.007133166989008258 0.058551833190377864 0.007133166989008258 -0.015116547986488862 -0.010076780499982703 0.058551833190377864 -0.010076780499982703 -0.029238731209289225" free_energy=-2460.551010810532 pbc="T T T"
Si       0.12998041      -0.27726547      -0.24962234      28.08550000      -5.88010898       5.26277067       5.05002371
Si       1.45561609       1.44577267       1.16159459      28.08550000      -4.49475491      -4.45721989       4.66046971
Si      -0.04046622       2.74523750       2.70574625      28.08550000      -0.25481175      -0.14411367      -0.25971021
Si       1.49351900       4.30394148       4.11003101      28.08550000       4.47487437      -5.91326104      -3.95136718
Si       2.68296368       0.18268193       2.97050568      28.08550000      -0.08124017      -0.83902962      -1.57457389
Si       4.19024213       1.63967762       4.10852611      28.08550000       0.60366056      -2.98081252      -0.19174464
Si       2.65899694       2.30409735       5.52851318      28.08550000       1.75810437       4.56780175      -1.69124001
Si       3.91298145       4.15078542       6.69616025      28.08550000       0.39845928       0.00793417       1.17410607
Si       2.59478782       2.68439265       0.10885403      28.08550000       4.31744367       2.59126057      -3.89816334
Si       4.07805044       4.02708266       1.34333831      28.08550000       1.35995106      -0.50474380      -0.77139084
Si       2.57211814       5.34894150       2.41057096      28.08550000       1.39884568       0.15377793       1.68866556
Si       3.91008186       6.61419321       4.00042201      28.08550000       1.19534852       1.16238132       0.22730223
Si       5.66063199       2.71565441       2.76286122      28.08550000      -3.22072755       2.40693767       0.57046325
Si       6.62850188       4.02062858       4.26150184      28.08550000       2.89545524       0.85676175      -0.81222947
Si       5.64179100       5.49477458       5.50066949      28.08550000      -3.95346597       0.35390875       0.17295116
Si       6.73980338       6.90900390       6.88992739      28.08550000      -0.51703315      -2.52435430      -0.39356184
16
Lattice="5.43096 5.43096 0.0 5.43096 0.0 5.43096 0.0 5.43096 5.43096" Properties=species:S:1:pos:R:3:masses:R:1:forces:R:3 energy=-2464.133808224995 stress="-0.015515946575782025 0.0006601553694293908 0.0010154823902488268 0.0006601553694293908 -0.016128357746031545 -0.005514455005275273 0.0010154823902488268 -0.005514455005275273 -0.012512652815832737" free_energy=-2464.133808224995 pbc="T T T"
Si      -0.15000253      -0.21386150      -0.13826607      28.08550000      -0.35345083       2.53045912       1.23488900
Si       1.30405080       1.42589611       1.14624769      28.08550000      -0.39034539      -1.66490600       1.53860390
Si       0.12683562       2.78169596       2.67662845      28.08550000      -0.97095884      -0.58733688       0.08993153
Si       1.36267640       4.12144818       4.16274573      28.08550000       1.30358759      -0.36227769      -2.28412687
Si       2.65412381       0.10929058       2.91668272      28.08550000      -1.06290894      -1.58594665      -3.75326625
Si       4.02918199       1.41193640       3.95317335      28.08550000      -0.41585433      -1.39211787       3.20492606
Si       2.65898255       2.67935858       5.34838841      28.08550000       0.36470944      -0.19681949       1.21302691
Si       3.97756407       3.89885832       6.82286191      28.08550000       0.70342759       2.29617404      -0.04835422
Si       2.80168328       2.81105112       0.13401943      28.08550000      -1.19192947      -1.22438450      -1.19510298
Si       4.05614410       4.00380009       1.45909856      28.08550000       1.11737853       1.19116199      -0.57009301
Si       2.89065107       5.47288487       2.65189259      28.08550000      -1.65970800      -0.31919243       1.78931037
Si       3.87401641       6.96683015       4.00835342      28.08550000       3.33762892      -0.48670494       0.54792804
Si       5.23847765       2.65465105       2.74935821      28.08550000       4.35886903       0.98797363      -0.65589998
Si       6.91669598       3.98279162       4.11609479      28.08550000      -1.25123042       0.05223325      -0.56400361
Si       5.65115530       5.40251994       5.35884923      28.08550000      -2.14666388       0.70945245       1.22489821
Si       6.91736352       6.80044853       6.94347159      28.08550000      -1.74255151       0.05223222      -1.77266736
16
Lattice="5.43096 5.43096 0.0 5.43096 0.0 5.43096 0.0 5.43096 5.43096" Properties=species:S:1:pos:R:3:masses:R:1:forces:R:3 energy=-2462.2350019695195 stress="-0.017624036601108704 -0.01304334795287055 0.005422639237621671 -0.01304334795287055 -0.013040593479840944 -0.012783509330410862 0.005422639237621671 -0.012783509330410862 -0.008559984018345217" free_energy=-2462.2350019695195 pbc="T T T"
Si      -0.09972678       0.02068351       0.04557743      28.08550000       1.85045454       2.63913811      -2.04646773
Si       1.28208009       1.53026521       1.11650820      28.08550000       0.48466194      -1.14199942       1.50034409
Si       0.10758289       2.66774233       2.68049153      28.08550000      -1.80654344       1.06399935       0.99510227
Si       1.20869518       4.21830418       4.10361536      28.08550000       0.99500508      -2.25326001      -0.37885616
Si       2.56258554       0.03325038       2.69936692      28.08550000      -1.27637426       0.31141407      -1.47272375
Si       3.90306653       1.13909030       4.03424533      28.08550000       2.12306192       1.23184327      -0.63239907
Si       2.79191164       2.64304212       5.14289159      28.08550000      -1.88663253       1.93540610       3.22928701
Si       3.96593930       4.13806780       6.98896518      28.08550000       1.58558027      -1.78203594      -2.47885271
Si       2.82142819       2.79937895       0.04900964      28.08550000      -0.77035572      -3.39809098      -2.32800224
Si       4.09235805       4.11321131       1.01542672      28.08550000      -0.45088536       0.39430309       5.01779750
Si       2.90465241       5.17779800       2.94479740      28.08550000      -0.48350314       1.37030360      -1.82631677
Si       4.13829220       6.72098118       4.12816580      28.08550000       1.37173545      -0.14464486       0.19053880
Si       5.19650192       3.10902363       2.80734171      28.08550000       0.66564394      -2.51126430       0.03383649
Si       6.96012428       3.98183930       4.11428578      28.08550000      -0.31044939      -0.26813726      -1.92622392
Si       5.65896637       5.18889975       5.33503890      28.08550000      -2.23081171       2.82911255       3.13762615
Si       6.81514219       6.82802204       7.10387252      28.08550000       0.13941292      -0.27608788      -1.01468996
16
Lattice="5.43096 5.43096 0.0 5.43096 0.0 5.43096 0.0 5.43096 5.43096" Properties=species:S:1:pos:R:3:masses:R:1:forces:R:3 energy=-2463.3602264173173 stress="-0.02627032744104831 0.008967646026727207 -0.001646256714029065 0.008967646026727207 -0.014955870393095061 0.019030654161561873 -0.001646256714029065 0.019030654161561873 -0.021276467838368947" free_energy=-2463.3602264173173 pbc="T T T"
Si      -0.09075728      -0.12552688       0.01892316      28.08550000       0.23276299       1.70960617      -0.93533441
Si       1.32707075       1.12563922       1.32778461      28.08550000       1.41302505       1.30534006       0.94591218
Si       0.10913736       2.67319441       2.76779308      28.08550000      -0.41303332       0.13287667      -1.71883052
Si       1.35123765       4.20076497       4.03967129      28.08550000      -2.38193010      -3.72627044       2.81813085
Si       2.83919384      -0.10793155       2.91223934      28.08550000      -2.10646673      -0.03664953      -0.87669911
Si       4.11950198       1.41699138       3.96853002      28.08550000       1.00882425       0.11075644       0.08531049
Si       2.76627155       2.65760083       5.32359830      28.08550000       0.15312230       1.70413075       0.29394522
Si       4.03774415       4.11817051       6.80433171      28.08550000       0.93949471      -1.07211375      -0.24688144
Si       2.73975869       2.78385554      -0.08392631      28.08550000      -0.89169970      -2.05146055       0.97670268
Si       4.10621442       3.97082419       1.34140456      28.08550000      -7.33309592       5.57419168      -5.04747343
Si       2.66291236       5.25577298       2.88171048      28.08550000       3.22825060       3.51514997      -3.64740751
Si       4.06889422       6.82238797       4.01542441      28.08550000      -0.26535687      -0.09786698      -0.02488879
Si       5.23728226       2.97165352       2.45153627      28.08550000       8.13474222      -6.73147630       7.51940782
Si       6.66204702       4.11052671       4.31055399      28.08550000       0.39830758      -0.35087690      -2.77632266
Si       5.37039093       5.51704213       5.39753862      28.08550000       0.01746756       1.17801723       2.31725400
Si       7.00270011       6.91863407       6.83248647      28.08550000      -2.13441463      -1.16335449       0.31717437
16
Lattice="5.43096 5.43096 0.0 5.43096 0.0 5.43096 0.0 5.43096 5.43096" Properties=species:S:1:pos:R:3:masses:R:1:forces:R:3 energy=-2463.5368696572145 stress="-0.012662312517108107 -0.011550423570823 -0.0018904866559876438 -0.011550423570823 -0.019274884103520448 0.011678047487861507 -0.0018904866559876438 0.011678047487861507 -0.011663356965036929" free_energy=-2463.5368696572145 pbc="T T T"
Si      -0.31029685      -0.00472207      -0.06895048      28.08550000       2.29185844      -0.38584930       0.49691633
Si       1.46758366       1.22877925       1.23630735      28.08550000      -0.69261687      -0.38647074       0.17660676
Si       0.20405999       2.62814604       2.72479063      28.08550000      -0.51230849      -0.79323596      -0.78256640
Si       1.34768781       4.15242436       3.95103941      28.08550000      -0.35390875       0.55269153       1.48472335
Si       2.82260447      -0.16836400       2.73225841      28.08550000      -2.15989529       2.34008693       0.55620160
Si       4.11018987       1.49978115       3.87236052      28.08550000      -3.37994002      -6.02495670       2.89575117
Si       2.83852258       2.74558719       5.18050749      28.08550000      -1.57952635       1.31078977       2.11226843
Si       3.98504430       3.87448229       7.03816412      28.08550000       2.39901970      -1.12968563      -3.06849562
Si       2.79241583       2.83786471       0.12946238      28.08550000      -0.88164592      -2.35145352      -2.02385539
Si       4.06843010       3.92459307       1.53176444      28.08550000      -1.50856287       4.19956270      -1.74421347
Si       2.65799585       5.57991890       2.70354278      28.08550000      -0.00312080      -0.82612474      -0.89653440
Si       4.04588928       6.83699614       3.91744463      28.08550000       1.31336113       0.07463861       2.73746121
Si       5.18566189       2.84460485       2.91987868      28.08550000       6.83238336       1.76039008      -2.25213361
Si       6.83109817       3.96013477       4.05517377      28.08550000      -0.42455083       1.55200398       1.74947061
Si       5.38613133       5.35610279       5.59630175      28.08550000       0.09846091       0.67552161      -0.59078370
Si       6.87658172       7.01327055       6.78955410      28.08550000      -1.43900785      -0.56790886      -0.85081685
16
Lattice="5.43096 5.43096 0.0 5.43096 0.0 5.43096 0.0 5.43096 5.43096" Properties=species:S:1:pos:R:3:masses:R:1:forces:R:3 energy=-2464.767180250134 stress="-0.014505973131592416 -0.033112438446594644 -0.0037892367310641117 -0.033112438446594644 -0.017701161845937726 -0.009416625130553313 -0.0037892367310641117 -0.009416625130553313 -0.003312712896941922" free_energy=-2464.767180250134 pbc="T T T"
Si      -0.01109723      -0.05331162       0.30805493      28.08550000       1.90607624       1.88743883      -4.13980461
Si       1.36259607       1.31345608       1.45040720      28.08550000       0.68024061       1.08966821       0.98253960
Si      -0.10441297       2.74478392       2.61411404      28.08550000      -0.45376268       0.16862040       0.46586846
Si       1.33464999       4.18715250       4.02885704      28.08550000      -1.82599307      -1.71032016       1.07845229
Si       2.71522982      -0.09571817       2.78640882      28.08550000       0.59738398       0.62629012      -0.41876868
Si       4.20135713       1.31341005       4.02634730      28.08550000      -0.24226091       0.11107654       0.84572709
Si       2.63557482       2.67000437       5.35985246      28.08550000       0.95735179       0.24944123      -2.41774453
Si       3.85765491       4.08037855       6.57733664      28.08550000       2.25649574       0.63111017       1.06386359
Si       2.91928291       2.75506306       0.26718413      28.08550000      -3.04290517      -5.08927186      -3.87639844
Si       3.97706933       4.17688729       1.23797575      28.08550000       1.00557771       1.33836202       5.49439029
Si       2.53769145       5.48349226       2.68572873      28.08550000       0.54329466       0.00436882      -1.42308347
Si       4.00134237       6.57367527       3.97194866      28.08550000       1.57147931       2.20087661       1.13307872
Si       5.54883068       2.91291580       2.82169285      28.08550000      -1.62881131      -1.52694652      -1.76084157
Si       6.93303178       3.95700549       4.19619906      28.08550000       1.53317090      -0.02589152       0.47450994
Si       5.60395345       5.37278313       5.27705991      28.08550000      -2.12101764       0.82255194       1.38336018
Si       6.79684549       6.91762202       6.70043250      28.08550000      -1.73631993      -0.77737534       1.11485088
16
Lattice="5.43096 5.43096 0.0 5.43096 0.0 5.43096 0.0 5.43096 5.43096" Properties=species:S:1:pos:R:3:masses:R:1:forces:R:3 energy=-2463.6015629526282 stress="-0.006387622955661019 -0.004035302988375762 -0.011694574326039152 -0.004035302988375762 -0.011925031902849692 0.025224545847473794 -0.011694574326039152 0.025224545847473794 -0.013735638840978703" free_energy=-2463.6015629526282 pbc="T T T"
Si      -0.40735564       0.05801364      -0.03763144      28.08550000       3.50974088      -0.37459070      -0.31970819
Si       1.26666958       0.97930261       1.16787208      28.08550000       1.10904147       2.89116766       1.41072263
Si       0.07746394       2.75790850       2.81952611      28.08550000      -0.30000454      -0.67724142      -0.03816134
Si       1.52145311       4.33986919       4.30675383      28.08550000      -3.09555314      -0.18490191      -1.04236737
Si       2.77348403       0.03061417       2.75687658      28.08550000      -1.41749569      -1.41518812      -1.17967199
Si       4.14199193       1.32628473       3.97243804      28.08550000      -1.70114158       3.19203918      -1.39540580
Si       2.62832220       2.75181076       5.28651157      28.08550000       2.43975498      -0.75083076       1.19184514
Si       4.10509752       4.13598030       6.74911276      28.08550000      -0.31220854      -1.80291844       1.15136852
Si       2.66640877       2.86063954       0.00329535      28.08550000      -0.86312395      -2.81034787      -0.67973822
Si       4.09743123       4.09364948       1.22452261      28.08550000      -1.31615643      -2.00480352       2.47554679
Si       2.71220509       5.27162260       2.67982083      28.08550000       1.07587810       1.84790632       0.15225944
Si       4.05230838       6.56236134       4.30195134      28.08550000      -0.32366126       1.96459635      -1.71263724
Si       5.48166700       2.78855196       2.64836183      28.08550000      -1.30565373      -1.23033301      -1.06349104
Si       6.69767373       3.99196681       3.96432671      28.08550000       1.67209275       2.46736142       1.98311858
Si       5.50094603       5.41310285       5.57015956      28.08550000       1.55534307       0.41703961      -0.29497880
Si       6.99383310       6.94792152       6.89570222      28.08550000      -0.72685214      -1.52895506      -0.63870135
16
Lattice="5.5050198252577 5.5050198252577 7.2182755466761e-18 5.5050198252577 2.8873102186705e-17 5.5050198252577 -2.1654826640028e-17 5.5050198252577 5.5050198252577" Properties=species:S:1:pos:R:3:masses:R:1:forces:R:3 energy=-2462.3151861613046 stress="-0.001231249444234789 -0.002224696050246751 -0.011537569363351497 -0.002224696050246751 -0.0022724402494266236 -0.025593645233441268 -0.011537569363351497 -0.025593645233441268 -0.005974452001219815" free_energy=-2462.3151861613046 pbc="T T T"
Si       0.17082354       0.04291067      -0.05569712      28.08550000      -2.44121408      -0.35496701      -0.18640678
Si       1.40470979       1.30329331       1.39118167      28.08550000       0.75620539       0.23100899       0.27797224
Si       0.30908693       2.82336876       2.85382006      28.08550000      -3.38174005      -2.37582732      -1.57399822
Si       1.47504522       4.12058164       4.07615673      28.08550000       1.62443889       1.37824060       2.39925419
Si       2.79314288      -0.33975391       2.80145611      28.08550000       0.42312413       4.34129245      -0.71928307
Si       3.99329586       1.44937832       4.06051810      28.08550000       2.25148852      -0.83805749      -0.23945223
Si       2.88892274       2.74858428       5.55284812      28.08550000      -2.41224057      -0.83449857      -0.24415015
Si       4.07836783       4.06490689       6.94264522      28.08550000       3.12132639      -0.80644501      -0.59685819
Si       2.51631877       2.81571349      -0.22778279      28.08550000       2.49085642      -2.23362681       3.96256279
Si       3.93218921       4.16689183       1.43190787      28.08550000       2.40980574      -0.92617305      -1.96957915