
     Program PWSCF v.6.7MaX starts on 22Apr2021 at 19:56: 3 

     This program is part of the open-source Quantum ESPRESSO suite
     for quantum simulation of materials; please cite
         "P. Giannozzi et al., J. Phys.:Condens. Matter 21 395502 (2009);
         "P. Giannozzi et al., J. Phys.:Condens. Matter 29 465901 (2017);
         "P. Giannozzi et al., J. Chem. Phys. 152 154105 (2020);
          URL http://www.quantum-espresso.org", 
     in publications or presentations arising from this work. More details at
     http://www.quantum-espresso.org/quote

     Parallel version (MPI & OpenMP), running on      16 processor cores
     Number of MPI processes:                 4
     Threads/MPI process:                     4

     MPI processes distributed on     1 nodes
     K-points division:     npool     =       4
     Reading input from ESP_51.pwi
Warning: card &CELL ignored
Warning: card / ignored

     Current dimensions of program PWSCF are:
     Max number of different atomic species (ntypx) = 10
     Max number of k-points (npk) =  40000
     Max angular momentum in pseudopotentials (lmaxx) =  3
     Message from routine read_pp_mesh:
     mesh size missing, using the one in header
     Message from routine read_pp_mesh:
     mesh size missing, using the one in header
     Message from routine read_pp_mesh:
     mesh size missing, using the one in header

     Subspace diagonalization in iterative solution of the eigenvalue problem:
     a serial algorithm will be used

 
     G-vector sticks info
     --------------------
     sticks:   dense  smooth     PW     G-vecs:    dense   smooth      PW
     Sum       12589   12589   3289              1061107  1061107  140905
 
     Using Slab Decomposition
 


     bravais-lattice index     =            0
     lattice parameter (alat)  =      23.7585  a.u.
     unit-cell volume          =   13410.8736 (a.u.)^3
     number of atoms/cell      =           40
     number of atomic types    =            3
     number of electrons       =       352.00
     number of Kohn-Sham states=          176
     kinetic-energy cutoff     =      70.0000  Ry
     charge density cutoff     =     280.0000  Ry
     scf convergence threshold =      1.0E-10
     mixing beta               =       0.7000
     number of iterations used =            8  plain     mixing
     Exchange-correlation= PBESOL
                           (   1   4  10   8   0   0   0)

     GPU acceleration is ACTIVE.


     celldm(1)=  23.758500  celldm(2)=   0.000000  celldm(3)=   0.000000
     celldm(4)=   0.000000  celldm(5)=   0.000000  celldm(6)=   0.000000

     crystal axes: (cart. coord. in units of alat)
               a(1) = (   1.000000   0.000000   0.000000 )  
               a(2) = (   0.000000   1.000000   0.000000 )  
               a(3) = (   0.000000   0.000000   1.000000 )  

     reciprocal axes: (cart. coord. in units 2 pi/alat)
               b(1) = (  1.000000  0.000000  0.000000 )  
               b(2) = (  0.000000  1.000000  0.000000 )  
               b(3) = (  0.000000  0.000000  1.000000 )  


     PseudoPot. # 1 for Cs read from file:
     /m100/home/userexternal/lmonacel/espresso/pseudo/Cs-nc-pbesol.upf
     MD5 check sum: 9d2f2206a14dc5b3b3f3fbfae186bed4
     Pseudo is Norm-conserving + core correction, Zval =  9.0
     Generated using ONCVPSP code by D. R. Hamann
     Using radial grid of 2384 points,  8 beta functions with: 
                l(1) =   0
                l(2) =   0
                l(3) =   1
                l(4) =   1
                l(5) =   2
                l(6) =   2
                l(7) =   3
                l(8) =   3

     PseudoPot. # 2 for Sn read from file:
     /m100/home/userexternal/lmonacel/espresso/pseudo/Sn-nc-pbesol.upf
     MD5 check sum: c2995d571af40102bfea7461443d92cf
     Pseudo is Norm-conserving + core correction, Zval = 14.0
     Generated using ONCVPSP code by D. R. Hamann
     Using radial grid of 1628 points,  6 beta functions with: 
                l(1) =   0
                l(2) =   0
                l(3) =   1
                l(4) =   1
                l(5) =   2
                l(6) =   2

     PseudoPot. # 3 for I  read from file:
     /m100/home/userexternal/lmonacel/espresso/pseudo/I-nc-pbesol.upf
     MD5 check sum: 80ed5ceb2eb9c553cfb6760a299d9c5b
     Pseudo is Norm-conserving + core correction, Zval =  7.0
     Generated using ONCVPSP code by D. R. Hamann
     Using radial grid of 1182 points,  6 beta functions with: 
                l(1) =   0
                l(2) =   0
                l(3) =   1
                l(4) =   1
                l(5) =   2
                l(6) =   2

     atomic species   valence    mass     pseudopotential
        Cs             9.00   132.90545     Cs( 1.00)
        Sn            14.00   118.71000     Sn( 1.00)
        I              7.00   126.90447     I ( 1.00)

     No symmetry found



   Cartesian axes

     site n.     atom                  positions (alat units)
         1           Cs  tau(   1) = (   0.2590446   0.2293357   0.2435249  )
         2           Sn  tau(   2) = (  -0.0082738  -0.0044761   0.0151294  )
         3           I   tau(   3) = (   0.2495018  -0.0390760   0.0264176  )
         4           I   tau(   4) = (  -0.0012267   0.0036707   0.2461609  )
         5           I   tau(   5) = (   0.0115650   0.2555291  -0.0279337  )
         6           Cs  tau(   6) = (   0.2333519   0.2418765   0.8004315  )
         7           Sn  tau(   7) = (  -0.0109289   0.0042347   0.5197296  )
         8           I   tau(   8) = (   0.2529848  -0.0069061   0.5145860  )
         9           I   tau(   9) = (  -0.0173890  -0.0339262   0.7684481  )
        10           I   tau(  10) = (  -0.0352436   0.2531605   0.5195594  )
        11           Cs  tau(  11) = (   0.2203976   0.7494947   0.2891586  )
        12           Sn  tau(  12) = (   0.0065615   0.5040195  -0.0111623  )
        13           I   tau(  13) = (   0.2491054   0.5383654  -0.0228766  )
        14           I   tau(  14) = (   0.0210544   0.4884972   0.2343016  )
        15           I   tau(  15) = (   0.0168405   0.7400348   0.0182745  )
        16           Cs  tau(  16) = (   0.2620677   0.7550929   0.7855124  )
        17           Sn  tau(  17) = (  -0.0101998   0.5039597   0.4831751  )
        18           I   tau(  18) = (   0.2512799   0.4678793   0.5140755  )
        19           I   tau(  19) = (  -0.0324535   0.4911416   0.7205754  )
        20           I   tau(  20) = (   0.0051842   0.7525546   0.4920286  )
        21           Cs  tau(  21) = (   0.7352496   0.2998326   0.2690951  )
        22           Sn  tau(  22) = (   0.4954397  -0.0110607  -0.0096630  )
        23           I   tau(  23) = (   0.7418659   0.0169898  -0.0025067  )
        24           I   tau(  24) = (   0.5259682   0.0120250   0.2420627  )
        25           I   tau(  25) = (   0.4698489   0.2558309  -0.0127170  )
        26           Cs  tau(  26) = (   0.7554960   0.2517689   0.7580842  )
        27           Sn  tau(  27) = (   0.4874944   0.0097486   0.5030785  )
        28           I   tau(  28) = (   0.7493385  -0.0141420   0.5109451  )
        29           I   tau(  29) = (   0.5041042   0.0028593   0.7531109  )
        30           I   tau(  30) = (   0.5103047   0.2395587   0.4843723  )
        31           Cs  tau(  31) = (   0.7717916   0.7622139   0.2469082  )
        32           Sn  tau(  32) = (   0.5238994   0.4928845  -0.0055325  )
        33           I   tau(  33) = (   0.7604642   0.4827443   0.0156928  )
        34           I   tau(  34) = (   0.4982893   0.4966148   0.2331802  )
        35           I   tau(  35) = (   0.5302671   0.7576742  -0.0108683  )
        36           Cs  tau(  36) = (   0.7392676   0.7847403   0.7239700  )
        37           Sn  tau(  37) = (   0.4955436   0.5197618   0.4905323  )
        38           I   tau(  38) = (   0.7540071   0.5181366   0.4628797  )
        39           I   tau(  39) = (   0.5590689   0.4808088   0.7249712  )
        40           I   tau(  40) = (   0.4688491   0.7442627   0.4868201  )

     number of k points=    32
                       cart. coord. in units 2pi/alat
        k(    1) = (   0.1250000   0.1250000   0.1250000), wk =   0.0625000
        k(    2) = (   0.1250000   0.1250000   0.3750000), wk =   0.0625000
        k(    3) = (   0.1250000   0.3750000   0.3750000), wk =   0.0625000
        k(    4) = (   0.3750000   0.3750000   0.3750000), wk =   0.0625000
        k(    5) = (  -0.1250000  -0.1250000   0.1250000), wk =   0.0625000
        k(    6) = (  -0.1250000   0.1250000  -0.1250000), wk =   0.0625000
        k(    7) = (   0.1250000  -0.1250000  -0.1250000), wk =   0.0625000
        k(    8) = (  -0.1250000  -0.1250000   0.3750000), wk =   0.0625000
        k(    9) = (  -0.1250000   0.1250000  -0.3750000), wk =   0.0625000
        k(   10) = (   0.1250000  -0.1250000  -0.3750000), wk =   0.0625000
        k(   11) = (   0.3750000  -0.1250000   0.1250000), wk =   0.0625000
        k(   12) = (  -0.3750000  -0.1250000  -0.1250000), wk =   0.0625000
        k(   13) = (   0.3750000   0.1250000  -0.1250000), wk =   0.0625000
        k(   14) = (  -0.3750000   0.1250000   0.1250000), wk =   0.0625000
        k(   15) = (  -0.1250000   0.3750000   0.1250000), wk =   0.0625000
        k(   16) = (  -0.1250000  -0.3750000  -0.1250000), wk =   0.0625000
        k(   17) = (   0.1250000   0.3750000  -0.1250000), wk =   0.0625000
        k(   18) = (   0.1250000  -0.3750000   0.1250000), wk =   0.0625000
        k(   19) = (  -0.1250000  -0.3750000   0.3750000), wk =   0.0625000
        k(   20) = (  -0.1250000   0.3750000  -0.3750000), wk =   0.0625000
        k(   21) = (   0.1250000  -0.3750000  -0.3750000), wk =   0.0625000
        k(   22) = (   0.3750000   0.1250000  -0.3750000), wk =   0.0625000
        k(   23) = (  -0.3750000  -0.1250000  -0.3750000), wk =   0.0625000
        k(   24) = (   0.3750000  -0.1250000   0.3750000), wk =   0.0625000
        k(   25) = (  -0.3750000   0.1250000   0.3750000), wk =   0.0625000
        k(   26) = (   0.3750000  -0.3750000   0.1250000), wk =   0.0625000
        k(   27) = (  -0.3750000  -0.3750000  -0.1250000), wk =   0.0625000
        k(   28) = (   0.3750000   0.3750000  -0.1250000), wk =   0.0625000
        k(   29) = (  -0.3750000   0.3750000   0.1250000), wk =   0.0625000
        k(   30) = (  -0.3750000  -0.3750000   0.3750000), wk =   0.0625000
        k(   31) = (  -0.3750000   0.3750000  -0.3750000), wk =   0.0625000
        k(   32) = (   0.3750000  -0.3750000  -0.3750000), wk =   0.0625000

     Dense  grid:  1061107 G-vectors     FFT dimensions: ( 128, 128, 128)

     Estimated max dynamical RAM per process >       6.82 GB

     Estimated total dynamical RAM >      27.27 GB

     Initial potential from superposition of free atoms

     starting charge  351.69472, renormalised to  352.00000
     Starting wfcs are  208 randomized atomic wfcs

     total cpu time spent up to now is       17.9 secs

     Self-consistent Calculation

     iteration #  1     ecut=    70.00 Ry     beta= 0.70
     Davidson diagonalization with overlap
     ethr =  1.00E-02,  avg # of iterations =  2.0

     Threshold (ethr) on eigenvalues was too large:
     Diagonalizing with lowered threshold

     Davidson diagonalization with overlap
     ethr =  2.12E-04,  avg # of iterations =  4.0

     total cpu time spent up to now is       39.0 secs

     total energy              =   -2256.03675200 Ry
     estimated scf accuracy    <       0.64711853 Ry

     iteration #  2     ecut=    70.00 Ry     beta= 0.70
     Davidson diagonalization with overlap
     ethr =  1.84E-04,  avg # of iterations =  3.3

     total cpu time spent up to now is       51.8 secs

     total energy              =   -2256.23834703 Ry
     estimated scf accuracy    <       0.28347560 Ry

     iteration #  3     ecut=    70.00 Ry     beta= 0.70
     Davidson diagonalization with overlap
     ethr =  8.05E-05,  avg # of iterations =  2.8

     total cpu time spent up to now is       63.6 secs

     total energy              =   -2256.29302743 Ry
     estimated scf accuracy    <       0.01590170 Ry

     iteration #  4     ecut=    70.00 Ry     beta= 0.70
     Davidson diagonalization with overlap
     ethr =  4.52E-06,  avg # of iterations =  4.0

     total cpu time spent up to now is       77.5 secs

     total energy              =   -2256.29920154 Ry
     estimated scf accuracy    <       0.00530748 Ry

     iteration #  5     ecut=    70.00 Ry     beta= 0.70
     Davidson diagonalization with overlap
     ethr =  1.51E-06,  avg # of iterations =  3.9

     total cpu time spent up to now is       89.9 secs

     total energy              =   -2256.30018443 Ry
     estimated scf accuracy    <       0.00116765 Ry

     iteration #  6     ecut=    70.00 Ry     beta= 0.70
     Davidson diagonalization with overlap
     ethr =  3.32E-07,  avg # of iterations =  3.2

     total cpu time spent up to now is      102.2 secs

     total energy              =   -2256.30038551 Ry
     estimated scf accuracy    <       0.00016859 Ry

     iteration #  7     ecut=    70.00 Ry     beta= 0.70
     Davidson diagonalization with overlap
     ethr =  4.79E-08,  avg # of iterations =  4.0

     total cpu time spent up to now is      115.8 secs

     total energy              =   -2256.30044417 Ry
     estimated scf accuracy    <       0.00001716 Ry

     iteration #  8     ecut=    70.00 Ry     beta= 0.70
     Davidson diagonalization with overlap
     ethr =  4.88E-09,  avg # of iterations =  4.1

     total cpu time spent up to now is      130.1 secs

     total energy              =   -2256.30045183 Ry
     estimated scf accuracy    <       0.00000352 Ry

     iteration #  9     ecut=    70.00 Ry     beta= 0.70
     Davidson diagonalization with overlap
     ethr =  1.00E-09,  avg # of iterations =  4.8

     total cpu time spent up to now is      144.5 secs

     total energy              =   -2256.30045322 Ry
     estimated scf accuracy    <       0.00000061 Ry

     iteration # 10     ecut=    70.00 Ry     beta= 0.70
     Davidson diagonalization with overlap
     ethr =  1.74E-10,  avg # of iterations =  3.4

     total cpu time spent up to now is      158.4 secs

     total energy              =   -2256.30045344 Ry
     estimated scf accuracy    <       0.00000008 Ry

     iteration # 11     ecut=    70.00 Ry     beta= 0.70
     Davidson diagonalization with overlap
     ethr =  2.34E-11,  avg # of iterations =  5.2

     total cpu time spent up to now is      174.4 secs

     total energy              =   -2256.30045350 Ry
     estimated scf accuracy    <       0.00000002 Ry

     iteration # 12     ecut=    70.00 Ry     beta= 0.70
     Davidson diagonalization with overlap
     ethr =  6.23E-12,  avg # of iterations =  3.1

     total cpu time spent up to now is      187.8 secs

     total energy              =   -2256.30045351 Ry
     estimated scf accuracy    <          5.1E-09 Ry

     iteration # 13     ecut=    70.00 Ry     beta= 0.70
     Davidson diagonalization with overlap
     ethr =  1.45E-12,  avg # of iterations =  4.0

     total cpu time spent up to now is      202.1 secs

     total energy              =   -2256.30045351 Ry
     estimated scf accuracy    <          5.5E-10 Ry

     iteration # 14     ecut=    70.00 Ry     beta= 0.70
     Davidson diagonalization with overlap
     ethr =  1.56E-13,  avg # of iterations =  6.5

     total cpu time spent up to now is      221.1 secs

     total energy              =   -2256.30045351 Ry
     estimated scf accuracy    <          2.0E-10 Ry

     iteration # 15     ecut=    70.00 Ry     beta= 0.70
     Davidson diagonalization with overlap
     ethr =  1.00E-13,  avg # of iterations =  2.6

     total cpu time spent up to now is      232.6 secs

     End of self-consistent calculation

          k = 0.1250 0.1250 0.1250 (132670 PWs)   bands (ev):

   -18.5276 -18.4604 -18.3830 -18.3738 -18.3715 -18.3651 -18.3639 -18.3543
   -18.3468 -18.3157 -18.3088 -18.3085 -18.3021 -18.2994 -18.2956 -18.2825
   -18.2717 -18.2618 -18.2560 -18.2523 -18.2452 -18.2083 -18.2038 -18.2023
   -18.2011 -18.1997 -18.1997 -18.1927 -18.1904 -18.1884 -18.1878 -18.1841
   -18.1834 -18.1826 -18.1787 -18.1775 -18.1754 -18.1748 -18.1663 -18.1512
   -18.1480 -18.1426 -18.1381 -18.1338 -18.1289 -18.1188 -18.1175 -18.1116
    -9.4356  -9.3418  -9.2993  -9.2558  -9.1841  -9.1412  -9.0779  -9.0663
    -9.0238  -8.9912  -8.9585  -8.9438  -8.9275  -8.8927  -8.8747  -8.8596
    -8.8416  -8.8132  -8.7548  -8.6548  -8.6438  -8.6046  -8.5308  -8.4556
    -5.2909  -5.2787  -5.2691  -5.2316  -5.2239  -5.2114  -5.1492  -5.1466
    -5.1439  -5.1371  -5.1291  -5.1252  -5.1073  -5.0985  -5.0902  -5.0865
    -5.0808  -5.0732  -5.0094  -5.0005  -4.9866  -4.9805  -4.9667  -4.9602
    -4.4477  -3.9635  -3.9274  -3.8898  -3.4077  -3.3972  -3.3327  -2.7729
    -0.7411  -0.7251  -0.6910  -0.6274  -0.5894  -0.5328  -0.5083  -0.4456
    -0.4192  -0.3623  -0.3006  -0.2725   0.4502   0.4786   0.5043   0.5920
     0.6407   0.6661   0.7250   0.7593   0.7885   0.8771   0.9071   0.9218
     0.9915   1.0156   1.0274   1.0842   1.1003   1.1389   1.1601   1.1839
     1.1958   1.2358   1.2529   1.2750   1.2848   1.3190   1.3327   1.3600
     1.3812   1.3933   1.4236   1.4396   1.4525   1.4968   1.5089   1.5447
     1.5674   1.5855   1.6008   1.6217   1.6536   1.6646   1.7064   1.7286
     1.7551   1.7882   1.8255   1.9160   1.9989   2.0274   2.0882   2.1323
     2.1483   2.1635   2.2234   2.2958   2.6175   2.6678   2.8321   3.1419

          k = 0.1250 0.1250 0.3750 (132608 PWs)   bands (ev):

   -18.5276 -18.4604 -18.3830 -18.3738 -18.3715 -18.3651 -18.3639 -18.3543
   -18.3468 -18.3157 -18.3088 -18.3085 -18.3021 -18.2994 -18.2956 -18.2825
   -18.2717 -18.2618 -18.2560 -18.2523 -18.2452 -18.2083 -18.2038 -18.2023
   -18.2011 -18.1997 -18.1997 -18.1927 -18.1904 -18.1884 -18.1878 -18.1841
   -18.1834 -18.1826 -18.1787 -18.1775 -18.1754 -18.1748 -18.1663 -18.1512
   -18.1480 -18.1426 -18.1381 -18.1338 -18.1289 -18.1188 -18.1175 -18.1116
    -9.4132  -9.3662  -9.2794  -9.2476  -9.2142  -9.1681  -9.0734  -9.0633
    -9.0193  -8.9912  -8.9502  -8.9398  -8.9277  -8.8981  -8.8761  -8.8537
    -8.8366  -8.8061  -8.7507  -8.6555  -8.6436  -8.6064  -8.5347  -8.4584
    -5.2907  -5.2787  -5.2690  -5.2315  -5.2237  -5.2113  -5.1493  -5.1466
    -5.1441  -5.1369  -5.1289  -5.1250  -5.1074  -5.0978  -5.0906  -5.0867
    -5.0812  -5.0733  -5.0092  -5.0002  -4.9886  -4.9791  -4.9669  -4.9604
    -4.3187  -4.1139  -3.8087  -3.7775  -3.5818  -3.5597  -3.2184  -2.9900
    -0.7247  -0.7093  -0.6508  -0.6066  -0.5154  -0.4849  -0.4163  -0.3484
    -0.1932  -0.0883  -0.0464   0.0385   0.4388   0.4630   0.5018   0.5319
     0.5687   0.5876   0.6175   0.6628   0.6971   0.7081   0.7704   0.8287
     0.8373   0.8837   0.9707   1.0247   1.0387   1.0754   1.1135   1.1371
     1.1895   1.2305   1.2616   1.2801   1.3002   1.3274   1.3363   1.3683
     1.3875   1.4138   1.4306   1.4755   1.4896   1.5301   1.5403   1.5524
     1.5666   1.5859   1.6320   1.6405   1.6563   1.6974   1.7145   1.7422
     1.7655   1.8221   1.8591   1.8901   1.9446   2.0048   2.0354   2.0489
     2.0758   2.0887   2.2099   2.2988   2.3729   2.4599   2.7462   2.8446

          k = 0.1250 0.3750 0.3750 (132616 PWs)   bands (ev):

   -18.5276 -18.4604 -18.3830 -18.3738 -18.3715 -18.3651 -18.3639 -18.3543
   -18.3468 -18.3157 -18.3088 -18.3085 -18.3021 -18.2994 -18.2956 -18.2825
   -18.2717 -18.2618 -18.2560 -18.2523 -18.2452 -18.2083 -18.2038 -18.2023
   -18.2011 -18.1998 -18.1997 -18.1927 -18.1904 -18.1884 -18.1878 -18.1841
   -18.1834 -18.1826 -18.1787 -18.1775 -18.1754 -18.1748 -18.1663 -18.1512
   -18.1480 -18.1426 -18.1381 -18.1338 -18.1289 -18.1188 -18.1175 -18.1116
    -9.3991  -9.3523  -9.2954  -9.2527  -9.2131  -9.1838  -9.0980  -9.0790
    -9.0191  -8.9824  -8.9504  -8.9275  -8.9078  -8.8931  -8.8651  -8.8523
    -8.8314  -8.8082  -8.7487  -8.6637  -8.6470  -8.6096  -8.5343  -8.4593
    -5.2907  -5.2785  -5.2688  -5.2317  -5.2239  -5.2115  -5.1499  -5.1482
    -5.1429  -5.1389  -5.1272  -5.1237  -5.1074  -5.0978  -5.0904  -5.0867
    -5.0811  -5.0735  -5.0092  -5.0003  -4.9880  -4.9791  -4.9673  -4.9601
    -4.2005  -4.0230  -3.9273  -3.7395  -3.6696  -3.4874  -3.3674  -3.1839
    -0.6573  -0.6128  -0.5798  -0.4698  -0.3475  -0.2866  -0.2014  -0.1889
    -0.0732  -0.0295   0.0524   0.0882   0.3431   0.4214   0.4515   0.4917
     0.5206   0.5401   0.5621   0.5931   0.6187   0.6370   0.7024   0.7253
     0.8080   0.8701   0.9118   0.9504   0.9928   1.0300   1.0742   1.0830
     1.1044   1.1678   1.1784   1.2280   1.2538   1.3008   1.3049   1.3305
     1.3807   1.4185   1.4495   1.4735   1.5068   1.5532   1.5727   1.5991
     1.6176   1.6354   1.6446   1.6656   1.7033   1.7084   1.7373   1.7482
     1.7703   1.8118   1.8319   1.8917   1.9102   1.9368   1.9829   2.0242
     2.0396   2.0795   2.1246   2.1907   2.3003   2.3699   2.5437   2.5732

          k = 0.3750 0.3750 0.3750 (132612 PWs)   bands (ev):

   -18.5276 -18.4604 -18.3830 -18.3738 -18.3715 -18.3651 -18.3639 -18.3543
   -18.3468 -18.3157 -18.3088 -18.3085 -18.3021 -18.2994 -18.2956 -18.2825
   -18.2717 -18.2618 -18.2560 -18.2523 -18.2452 -18.2083 -18.2038 -18.2023
   -18.2011 -18.1998 -18.1997 -18.1927 -18.1904 -18.1884 -18.1878 -18.1841
   -18.1834 -18.1826 -18.1787 -18.1775 -18.1754 -18.1748 -18.1663 -18.1512
   -18.1480 -18.1426 -18.1381 -18.1338 -18.1290 -18.1188 -18.1175 -18.1116
    -9.3877  -9.3366  -9.2990  -9.2622  -9.2207  -9.1918  -9.1203  -9.1049
    -8.9990  -8.9626  -8.9473  -8.9360  -8.8999  -8.8902  -8.8570  -8.8450
    -8.8254  -8.8114  -8.7579  -8.6623  -8.6492  -8.6090  -8.5375  -8.4601
    -5.2908  -5.2786  -5.2689  -5.2316  -5.2239  -5.2113  -5.1498  -5.1486
    -5.1429  -5.1390  -5.1270  -5.1238  -5.1067  -5.0983  -5.0906  -5.0878
    -5.0791  -5.0739  -5.0093  -5.0002  -4.9881  -4.9789  -4.9668  -4.9603
    -4.0796  -3.9222  -3.8550  -3.7952  -3.6607  -3.6217  -3.5200  -3.3536
    -0.4167  -0.3873  -0.3440  -0.3050  -0.2703  -0.2265  -0.1655  -0.0871
    -0.0442   0.0018   0.0591   0.1770   0.2985   0.3170   0.4014   0.4161
     0.4650   0.4800   0.5182   0.5502   0.5607   0.6124   0.6295   0.7014
     0.8604   0.8781   0.9030   0.9392   0.9634   1.0002   1.0255   1.0428
     1.0812   1.0973   1.1347   1.1844   1.2018   1.2388   1.2521   1.2771
     1.3437   1.3893   1.4718   1.4827   1.5287   1.5559   1.5953   1.6210
     1.6303   1.6520   1.6695   1.6961   1.7136   1.7266   1.7507   1.7736
     1.7992   1.8182   1.8353   1.8545   1.8994   1.9157   1.9579   1.9848
     2.0088   2.0437   2.0684   2.1118   2.1548   2.1943   2.2795   2.3146

          k =-0.1250-0.1250 0.1250 (132670 PWs)   bands (ev):

   -18.5276 -18.4604 -18.3830 -18.3738 -18.3715 -18.3651 -18.3639 -18.3543
   -18.3468 -18.3157 -18.3088 -18.3085 -18.3021 -18.2994 -18.2956 -18.2825
   -18.2717 -18.2618 -18.2560 -18.2523 -18.2452 -18.2083 -18.2038 -18.2023
   -18.2011 -18.1997 -18.1997 -18.1927 -18.1904 -18.1884 -18.1878 -18.1841
   -18.1834 -18.1826 -18.1787 -18.1775 -18.1754 -18.1748 -18.1663 -18.1512
   -18.1480 -18.1426 -18.1381 -18.1338 -18.1289 -18.1188 -18.1175 -18.1116
    -9.4362  -9.3416  -9.2924  -9.2644  -9.1847  -9.1280  -9.1008  -9.0593
    -9.0189  -8.9809  -8.9668  -8.9457  -8.9297  -8.8912  -8.8776  -8.8547
    -8.8411  -8.8140  -8.7557  -8.6546  -8.6445  -8.6042  -8.5308  -8.4556
    -5.2908  -5.2788  -5.2691  -5.2316  -5.2240  -5.2114  -5.1491  -5.1467
    -5.1438  -5.1372  -5.1291  -5.1253  -5.1072  -5.0987  -5.0903  -5.0860
    -5.0810  -5.0734  -5.0093  -5.0005  -4.9864  -4.9807  -4.9666  -4.9603
    -4.4479  -3.9674  -3.9196  -3.8929  -3.4178  -3.3760  -3.3451  -2.7721
    -0.7604  -0.7028  -0.6949  -0.6209  -0.5930  -0.5450  -0.4989  -0.4410
    -0.4285  -0.3631  -0.2998  -0.2610   0.4516   0.4755   0.5042   0.6125
     0.6237   0.6685   0.7289   0.7506   0.7809   0.8616   0.8962   0.9250
     0.9893   1.0263   1.0307   1.0692   1.0916   1.1327   1.1606   1.1854
     1.2131   1.2412   1.2572   1.2763   1.2922   1.3230   1.3431   1.3639
     1.3847   1.4020   1.4252   1.4542   1.4651   1.4790   1.5042   1.5227
     1.5522   1.5790   1.5992   1.6254   1.6570   1.6704   1.7133   1.7293
     1.7640   1.7826   1.8109   1.9138   1.9900   2.0340   2.0839   2.1283
     2.1563   2.1847   2.2339   2.2742   2.6182   2.6930   2.8040   3.1494

          k =-0.1250 0.1250-0.1250 (132670 PWs)   bands (ev):

   -18.5276 -18.4604 -18.3830 -18.3738 -18.3715 -18.3651 -18.3639 -18.3543
   -18.3468 -18.3157 -18.3088 -18.3085 -18.3021 -18.2994 -18.2956 -18.2825
   -18.2717 -18.2618 -18.2560 -18.2523 -18.2452 -18.2083 -18.2038 -18.2023
   -18.2011 -18.1997 -18.1997 -18.1927 -18.1904 -18.1884 -18.1878 -18.1841
   -18.1834 -18.1826 -18.1787 -18.1775 -18.1754 -18.1748 -18.1663 -18.1512
   -18.1480 -18.1426 -18.1381 -18.1338 -18.1289 -18.1188 -18.1175 -18.1116
    -9.4361  -9.3404  -9.2983  -9.2580  -9.1870  -9.1351  -9.0811  -9.0665
    -9.0233  -8.9873  -8.9654  -8.9483  -8.9236  -8.8882  -8.8740  -8.8595
    -8.8424  -8.8132  -8.7562  -8.6538  -8.6448  -8.6045  -8.5309  -8.4555
    -5.2908  -5.2789  -5.2689  -5.2315  -5.2239  -5.2116  -5.1491  -5.1467
    -5.1438  -5.1372  -5.1288  -5.1254  -5.1073  -5.0986  -5.0902  -5.0866
    -5.0805  -5.0734  -5.0094  -5.0006  -4.9865  -4.9806  -4.9666  -4.9603
    -4.4477  -3.9666  -3.9304  -3.8821  -3.4183  -3.3950  -3.3247  -2.7746
    -0.7513  -0.7096  -0.6906  -0.6175  -0.5766  -0.5541  -0.4966  -0.4733
    -0.4244  -0.3547  -0.3089  -0.2562   0.4564   0.4686   0.5070   0.6075
     0.6348   0.6588   0.7333   0.7506   0.7844   0.8569   0.9276   0.9400
     0.9838   0.9999   1.0331   1.0684   1.0949   1.1194   1.1664   1.1898
     1.2044   1.2332   1.2511   1.2682   1.3039   1.3109   1.3401   1.3839
     1.3940   1.4011   1.4262   1.4458   1.4678   1.4878   1.5002   1.5240
     1.5506   1.5870   1.6079   1.6241   1.6517   1.6624   1.6958   1.7295
     1.7569   1.7815   1.8216   1.9224   1.9944   2.0244   2.0922   2.1232
     2.1549   2.1729   2.2249   2.3027   2.6078   2.6909   2.8179   3.1368

          k = 0.1250-0.1250-0.1250 (132670 PWs)   bands (ev):

   -18.5276 -18.4604 -18.3830 -18.3738 -18.3715 -18.3651 -18.3639 -18.3543
   -18.3468 -18.3157 -18.3088 -18.3085 -18.3021 -18.2994 -18.2956 -18.2825
   -18.2717 -18.2618 -18.2560 -18.2523 -18.2452 -18.2083 -18.2038 -18.2023
   -18.2011 -18.1997 -18.1997 -18.1927 -18.1904 -18.1884 -18.1878 -18.1841
   -18.1834 -18.1826 -18.1787 -18.1775 -18.1754 -18.1748 -18.1663 -18.1512
   -18.1480 -18.1426 -18.1381 -18.1338 -18.1289 -18.1188 -18.1175 -18.1116
    -9.4353  -9.3463  -9.2865  -9.2651  -9.1916  -9.1204  -9.0958  -9.0613
    -9.0157  -8.9999  -8.9639  -8.9466  -8.9193  -8.8919  -8.8775  -8.8545
    -8.8429  -8.8135  -8.7556  -8.6546  -8.6447  -8.6041  -8.5308  -8.4556
    -5.2909  -5.2789  -5.2689  -5.2314  -5.2239  -5.2116  -5.1490  -5.1466
    -5.1439  -5.1372  -5.1290  -5.1254  -5.1073  -5.0987  -5.0901  -5.0860
    -5.0810  -5.0734  -5.0096  -5.0004  -4.9864  -4.9807  -4.9666  -4.9602
    -4.4477  -3.9666  -3.9210  -3.8928  -3.4225  -3.3750  -3.3395  -2.7740
    -0.7494  -0.7297  -0.6892  -0.6108  -0.5686  -0.5452  -0.4932  -0.4637
    -0.4275  -0.3704  -0.3092  -0.2587   0.4565   0.4730   0.5048   0.6027
     0.6397   0.6644   0.7360   0.7486   0.7890   0.8705   0.9099   0.9292
     0.9769   1.0187   1.0260   1.0613   1.0952   1.1432   1.1539   1.1753
     1.2092   1.2327   1.2539   1.2644   1.3008   1.3138   1.3308   1.3639
     1.3819   1.3974   1.4241   1.4531   1.4724   1.4968   1.5262   1.5425
     1.5492   1.5708   1.5964   1.6255   1.6551   1.6700   1.7019   1.7301
     1.7727   1.7933   1.8201   1.9227   1.9815   2.0250   2.0825   2.1151
     2.1489   2.1716   2.2367   2.2936   2.6034   2.6921   2.8315   3.1342

          k =-0.1250-0.1250 0.3750 (132608 PWs)   bands (ev):

   -18.5276 -18.4604 -18.3830 -18.3738 -18.3715 -18.3651 -18.3639 -18.3543
   -18.3468 -18.3157 -18.3088 -18.3085 -18.3021 -18.2994 -18.2956 -18.2825
   -18.2717 -18.2618 -18.2560 -18.2523 -18.2452 -18.2083 -18.2038 -18.2023
   -18.2011 -18.1997 -18.1997 -18.1927 -18.1904 -18.1884 -18.1878 -18.1841
   -18.1834 -18.1826 -18.1787 -18.1775 -18.1754 -18.1748 -18.1663 -18.1512
   -18.1480 -18.1426 -18.1381 -18.1338 -18.1289 -18.1188 -18.1175 -18.1116
    -9.4147  -9.3640  -9.2708  -9.2595  -9.2163  -9.1577  -9.0926  -9.0542
    -9.0154  -8.9820  -8.9580  -8.9411  -8.9307  -8.8953  -8.8783  -8.8499
    -8.8359  -8.8071  -8.7514  -8.6553  -8.6444  -8.6060  -8.5346  -8.4583
    -5.2906  -5.2787  -5.2690  -5.2314  -5.2238  -5.2114  -5.1491  -5.1467
    -5.1440  -5.1369  -5.1288  -5.1252  -5.1073  -5.0980  -5.0907  -5.0861
    -5.0814  -5.0735  -5.0091  -5.0002  -4.9884  -4.9792  -4.9669  -4.9605
    -4.3191  -4.1135  -3.8089  -3.7759  -3.5908  -3.5501  -3.2225  -2.9877
    -0.7336  -0.7032  -0.6396  -0.6162  -0.5191  -0.4846  -0.4102  -0.3618
    -0.1784  -0.0793  -0.0562   0.0520   0.4356   0.4763   0.4942   0.5293
     0.5567   0.5893   0.6211   0.6631   0.6795   0.6970   0.7685   0.8046
     0.8391   0.8940   0.9869   1.0026   1.0590   1.0833   1.0985   1.1485
     1.1787   1.2525   1.2677   1.2814   1.3042   1.3312   1.3434   1.3608
     1.4030   1.4119   1.4416   1.4677   1.4869   1.5197   1.5281   1.5495
     1.5737   1.5854   1.6188   1.6378   1.6645   1.7009   1.7214   1.7428
     1.7730   1.8253   1.8459   1.8649   1.9460   2.0024   2.0397   2.0539
     2.0784   2.0890   2.2349   2.2793   2.3664   2.4822   2.7248   2.8538

          k =-0.1250 0.1250-0.3750 (132608 PWs)   bands (ev):

   -18.5276 -18.4604 -18.3830 -18.3738 -18.3715 -18.3651 -18.3639 -18.3543
   -18.3468 -18.3157 -18.3088 -18.3085 -18.3021 -18.2994 -18.2956 -18.2825
   -18.2717 -18.2618 -18.2560 -18.2523 -18.2452 -18.2083 -18.2038 -18.2023
   -18.2011 -18.1997 -18.1997 -18.1927 -18.1904 -18.1884 -18.1878 -18.1841
   -18.1834 -18.1826 -18.1787 -18.1775 -18.1754 -18.1748 -18.1663 -18.1512
   -18.1480 -18.1426 -18.1381 -18.1338 -18.1289 -18.1188 -18.1175 -18.1116
    -9.4148  -9.3625  -9.2830  -9.2488  -9.2125  -9.1640  -9.0795  -9.0606
    -9.0231  -8.9847  -8.9554  -8.9432  -8.9248  -8.8918  -8.8784  -8.8496
    -8.8399  -8.8067  -8.7517  -8.6546  -8.6443  -8.6063  -8.5348  -8.4582
    -5.2907  -5.2788  -5.2689  -5.2313  -5.2237  -5.2115  -5.1491  -5.1467
    -5.1440  -5.1370  -5.1287  -5.1251  -5.1073  -5.0979  -5.0907  -5.0868
    -5.0809  -5.0735  -5.0092  -5.0003  -4.9885  -4.9791  -4.9669  -4.9604
    -4.3187  -4.1144  -3.8141  -3.7688  -3.5935  -3.5492  -3.2193  -2.9909
    -0.7292  -0.7131  -0.6274  -0.5994  -0.5311  -0.4907  -0.4200  -0.3537
    -0.1848  -0.0900  -0.0472   0.0496   0.4331   0.4617   0.4956   0.5424
     0.5672   0.5783   0.6201   0.6624   0.6922   0.7050   0.7785   0.8120
     0.8473   0.8804   0.9781   1.0174   1.0319   1.0523   1.1284   1.1552
     1.2052   1.2267   1.2614   1.2700   1.2927   1.3271   1.3581   1.3860
     1.3954   1.4030   1.4461   1.4700   1.5000   1.5176   1.5383   1.5550
     1.5653   1.5781   1.6199   1.6359   1.6516   1.6938   1.7193   1.7456
     1.7627   1.8250   1.8527   1.8763   1.9490   1.9889   2.0299   2.0619
     2.0807   2.0957   2.2164   2.3081   2.3455   2.5045   2.7210   2.8461

          k = 0.1250-0.1250-0.3750 (132608 PWs)   bands (ev):

   -18.5276 -18.4604 -18.3830 -18.3738 -18.3715 -18.3651 -18.3639 -18.3543
   -18.3468 -18.3157 -18.3088 -18.3085 -18.3021 -18.2994 -18.2956 -18.2825
   -18.2717 -18.2618 -18.2560 -18.2523 -18.2452 -18.2083 -18.2038 -18.2023
   -18.2011 -18.1997 -18.1997 -18.1927 -18.1904 -18.1884 -18.1878 -18.1841
   -18.1834 -18.1826 -18.1787 -18.1775 -18.1754 -18.1748 -18.1663 -18.1512
   -18.1480 -18.1426 -18.1381 -18.1338 -18.1289 -18.1188 -18.1175 -18.1116
    -9.4125  -9.3683  -9.2676  -9.2586  -9.2209  -9.1548  -9.0822  -9.0607
    -9.0177  -8.9942  -8.9536  -8.9423  -8.9213  -8.8951  -8.8798  -8.8461
    -8.8410  -8.8067  -8.7511  -8.6554  -8.6443  -8.6059  -8.5346  -8.4584
    -5.2907  -5.2788  -5.2688  -5.2313  -5.2237  -5.2115  -5.1490  -5.1466
    -5.1441  -5.1370  -5.1288  -5.1251  -5.1073  -5.0981  -5.0906  -5.0862
    -5.0813  -5.0734  -5.0094  -5.0001  -4.9885  -4.9791  -4.9669  -4.9604
    -4.3190  -4.1130  -3.8139  -3.7728  -3.5970  -3.5406  -3.2230  -2.9894
    -0.7316  -0.7182  -0.6286  -0.5973  -0.5255  -0.4915  -0.4065  -0.3578
    -0.1934  -0.0822  -0.0543   0.0433   0.4431   0.4777   0.5054   0.5209
     0.5581   0.5923   0.6185   0.6637   0.6843   0.7114   0.7763   0.8037
     0.8471   0.8640   0.9812   1.0200   1.0534   1.0676   1.1140   1.1275
     1.2097   1.2358   1.2556   1.2819   1.2963   1.3211   1.3386   1.3698
     1.3986   1.4092   1.4455   1.4779   1.5101   1.5186   1.5342   1.5464
     1.5658   1.5721   1.6203   1.6501   1.6643   1.7040   1.7222   1.7477
     1.7716   1.8300   1.8481   1.8729   1.9429   1.9958   2.0295   2.0517
     2.0733   2.0908   2.1993   2.3049   2.3586   2.5041   2.7349   2.8396

          k = 0.3750-0.1250 0.1250 (132608 PWs)   bands (ev):

   -18.5276 -18.4604 -18.3830 -18.3738 -18.3715 -18.3651 -18.3639 -18.3543
   -18.3468 -18.3157 -18.3088 -18.3085 -18.3021 -18.2994 -18.2956 -18.2825
   -18.2717 -18.2618 -18.2560 -18.2523 -18.2452 -18.2083 -18.2038 -18.2023
   -18.2011 -18.1997 -18.1997 -18.1927 -18.1904 -18.1884 -18.1878 -18.1841
   -18.1834 -18.1826 -18.1787 -18.1775 -18.1754 -18.1748 -18.1663 -18.1512
   -18.1480 -18.1426 -18.1381 -18.1338 -18.1289 -18.1188 -18.1175 -18.1116
    -9.4159  -9.3531  -9.2910  -9.2617  -9.2075  -9.1474  -9.0912  -9.0670
    -9.0161  -8.9801  -8.9595  -8.9503  -8.9203  -8.8939  -8.8671  -8.8497
    -8.8307  -8.8117  -8.7608  -8.6530  -8.6493  -8.6038  -8.5354  -8.4567
    -5.2908  -5.2786  -5.2686  -5.2316  -5.2239  -5.2116  -5.1495  -5.1469
    -5.1440  -5.1373  -5.1288  -5.1250  -5.1060  -5.0983  -5.0903  -5.0883
    -5.0793  -5.0742  -5.0093  -5.0008  -4.9865  -4.9806  -4.9663  -4.9605
    -4.3248  -4.0974  -3.8314  -3.7751  -3.5892  -3.5328  -3.2397  -2.9814
    -0.7031  -0.6683  -0.6399  -0.5860  -0.5338  -0.5022  -0.4374  -0.3539
    -0.1676  -0.0981  -0.0463   0.0252   0.4008   0.4642   0.4962   0.5283
     0.5610   0.5767   0.5980   0.6338   0.6868   0.7335   0.7507   0.7700
     0.8492   0.9399   0.9815   1.0121   1.0744   1.0926   1.1184   1.1612
     1.1947   1.2432   1.2656   1.2722   1.2932   1.3116   1.3574   1.3708
     1.4021   1.4448   1.4535   1.4719   1.4891   1.5223   1.5357   1.5432
     1.5717   1.5967   1.6118   1.6247   1.6506   1.6723   1.7129   1.7365
     1.7704   1.7970   1.8248   1.8699   1.9292   1.9633   2.0112   2.0554
     2.1161   2.1455   2.1883   2.2871   2.4138   2.4580   2.7703   2.8819

          k =-0.3750-0.1250-0.1250 (132608 PWs)   bands (ev):

   -18.5276 -18.4604 -18.3830 -18.3738 -18.3715 -18.3651 -18.3639 -18.3543
   -18.3468 -18.3157 -18.3088 -18.3085 -18.3021 -18.2994 -18.2956 -18.2825
   -18.2717 -18.2618 -18.2560 -18.2523 -18.2452 -18.2083 -18.2038 -18.2023
   -18.2011 -18.1997 -18.1997 -18.1927 -18.1904 -18.1884 -18.1878 -18.1841
   -18.1834 -18.1826 -18.1787 -18.1775 -18.1754 -18.1748 -18.1663 -18.1512
   -18.1480 -18.1426 -18.1381 -18.1338 -18.1289 -18.1188 -18.1175 -18.1116
    -9.4154  -9.3518  -9.2990  -9.2570  -9.2013  -9.1533  -9.0853  -9.0733
    -9.0180  -8.9774  -8.9578  -8.9460  -8.9219  -8.8984  -8.8673  -8.8494
    -8.8317  -8.8110  -8.7595  -8.6548  -8.6476  -8.6039  -8.5353  -8.4568
    -5.2908  -5.2785  -5.2688  -5.2318  -5.2240  -5.2114  -5.1496  -5.1467
    -5.1440  -5.1372  -5.1291  -5.1249  -5.1059  -5.0982  -5.0903  -5.0883
    -5.0794  -5.0740  -5.0094  -5.0007  -4.9866  -4.9805  -4.9664  -4.9605
    -4.3250  -4.0966  -3.8274  -3.7842  -3.5827  -3.5325  -3.2450  -2.9781
    -0.7012  -0.6656  -0.6430  -0.5901  -0.5249  -0.5179  -0.4358  -0.3608
    -0.1446  -0.0929  -0.0434   0.0163   0.3922   0.4547   0.4901   0.5243
     0.5553   0.5817   0.5931   0.6517   0.6809   0.7327   0.7517   0.7849
     0.8463   0.9380   0.9907   1.0138   1.0721   1.1130   1.1305   1.1752
     1.2025   1.2195   1.2452   1.2820   1.2958   1.3181   1.3419   1.3708
     1.3862   1.4125   1.4246   1.4612   1.4869   1.5335   1.5554   1.5709
     1.5781   1.5949   1.6182   1.6318   1.6610   1.6869   1.7068   1.7416
     1.7544   1.7993   1.8176   1.8575   1.9304   1.9786   2.0136   2.0488
     2.1176   2.1267   2.1921   2.2738   2.4012   2.4900   2.7604   2.8906

          k = 0.3750 0.1250-0.1250 (132608 PWs)   bands (ev):

   -18.5276 -18.4604 -18.3830 -18.3738 -18.3715 -18.3651 -18.3639 -18.3543
   -18.3468 -18.3157 -18.3088 -18.3085 -18.3021 -18.2994 -18.2956 -18.2825
   -18.2717 -18.2618 -18.2560 -18.2523 -18.2452 -18.2083 -18.2038 -18.2023
   -18.2011 -18.1997 -18.1997 -18.1927 -18.1904 -18.1884 -18.1878 -18.1841
   -18.1834 -18.1826 -18.1787 -18.1775 -18.1754 -18.1748 -18.1663 -18.1512
   -18.1480 -18.1426 -18.1381 -18.1338 -18.1289 -18.1188 -18.1175 -18.1116
    -9.4161  -9.3533  -9.2854  -9.2686  -9.2054  -9.1433  -9.1040  -9.0616
    -9.0122  -8.9787  -8.9602  -8.9462  -8.9242  -8.8968  -8.8693  -8.8490
    -8.8279  -8.8123  -8.7604  -8.6544  -8.6484  -8.6035  -8.5353  -8.4568
    -5.2907  -5.2785  -5.2688  -5.2317  -5.2241  -5.2115  -5.1495  -5.1468
    -5.1439  -5.1372  -5.1290  -5.1250  -5.1059  -5.0986  -5.0904  -5.0878
    -5.0795  -5.0742  -5.0093  -5.0006  -4.9864  -4.9807  -4.9663  -4.9606
    -4.3253  -4.0958  -3.8321  -3.7781  -3.5885  -3.5269  -3.2483  -2.9764
    -0.7124  -0.6616  -0.6343  -0.5889  -0.5524  -0.4979  -0.4204  -0.3721
    -0.1522  -0.0819  -0.0408   0.0207   0.3860   0.4649   0.4904   0.5268
     0.5537   0.5728   0.6043   0.6422   0.6826   0.7277   0.7417   0.7616
     0.8595   0.9386   0.9900   1.0135   1.0689   1.0905   1.1326   1.1700
     1.1972   1.2392   1.2641   1.2787   1.3026   1.3238   1.3511   1.3724
     1.3802   1.4268   1.4419   1.4752   1.4980   1.5185   1.5302   1.5663
     1.5686   1.5882   1.6113   1.6285   1.6681   1.6885   1.7166   1.7296
     1.7463   1.8008   1.8155   1.8685   1.9206   1.9823   2.0191   2.0486
     2.1067   2.1491   2.2144   2.2642   2.3715   2.5092   2.7444   2.8993

          k =-0.3750 0.1250 0.1250 (132608 PWs)   bands (ev):

   -18.5276 -18.4604 -18.3830 -18.3738 -18.3715 -18.3651 -18.3639 -18.3543
   -18.3468 -18.3157 -18.3088 -18.3085 -18.3021 -18.2994 -18.2956 -18.2825
   -18.2717 -18.2618 -18.2560 -18.2523 -18.2452 -18.2083 -18.2038 -18.2023
   -18.2011 -18.1997 -18.1997 -18.1927 -18.1904 -18.1884 -18.1878 -18.1841
   -18.1834 -18.1826 -18.1787 -18.1775 -18.1754 -18.1748 -18.1663 -18.1512
   -18.1480 -18.1426 -18.1381 -18.1338 -18.1289 -18.1188 -18.1175 -18.1116
    -9.4146  -9.3566  -9.2856  -9.2665  -9.2080  -9.1409  -9.0940  -9.0683
    -9.0146  -8.9854  -8.9601  -8.9485  -8.9157  -8.8973  -8.8686  -8.8477
    -8.8295  -8.8124  -8.7605  -8.6536  -8.6494  -8.6034  -8.5353  -8.4568
    -5.2908  -5.2786  -5.2686  -5.2316  -5.2240  -5.2117  -5.1494  -5.1467
    -5.1440  -5.1373  -5.1290  -5.1251  -5.1059  -5.0985  -5.0902  -5.0878
    -5.0795  -5.0742  -5.0096  -5.0006  -4.9865  -4.9807  -4.9663  -4.9605
    -4.3251  -4.0964  -3.8294  -3.7812  -3.5864  -3.5298  -3.2433  -2.9801
    -0.7003  -0.6725  -0.6532  -0.5834  -0.5298  -0.4912  -0.4270  -0.3646
    -0.1703  -0.1043  -0.0430   0.0315   0.3925   0.4731   0.4931   0.5321
     0.5606   0.5752   0.6015   0.6426   0.6790   0.7260   0.7417   0.7645
     0.8527   0.9352   0.9862   1.0145   1.0742   1.1126   1.1456   1.1626
     1.1893   1.2239   1.2454   1.2823   1.3023   1.3131   1.3317   1.3675
     1.3843   1.4276   1.4516   1.4757   1.5038   1.5299   1.5432   1.5552
     1.5646   1.5839   1.6135   1.6436   1.6613   1.6757   1.7189   1.7583
     1.7622   1.7911   1.8251   1.8742   1.9208   1.9596   2.0061   2.0491
     2.1084   2.1343   2.1986   2.2772   2.3895   2.5026   2.7619   2.8850

          k =-0.1250 0.3750 0.1250 (132608 PWs)   bands (ev):

   -18.5276 -18.4604 -18.3830 -18.3738 -18.3715 -18.3651 -18.3639 -18.3543
   -18.3468 -18.3157 -18.3088 -18.3085 -18.3021 -18.2994 -18.2956 -18.2825
   -18.2717 -18.2618 -18.2560 -18.2523 -18.2452 -18.2083 -18.2038 -18.2023
   -18.2011 -18.1998 -18.1997 -18.1927 -18.1904 -18.1884 -18.1878 -18.1841
   -18.1834 -18.1826 -18.1787 -18.1775 -18.1754 -18.1748 -18.1663 -18.1512
   -18.1480 -18.1426 -18.1381 -18.1338 -18.1289 -18.1188 -18.1175 -18.1116
    -9.4159  -9.3472  -9.3061  -9.2506  -9.1961  -9.1505  -9.1086  -9.0669
    -9.0272  -8.9879  -8.9650  -8.9275  -8.8980  -8.8840  -8.8783  -8.8550
    -8.8409  -8.8104  -8.7497  -8.6640  -8.6476  -8.6082  -8.5304  -8.4571
    -5.2907  -5.2787  -5.2686  -5.2316  -5.2239  -5.2117  -5.1499  -5.1483
    -5.1429  -5.1390  -5.1269  -5.1237  -5.1073  -5.0988  -5.0903  -5.0860
    -5.0810  -5.0735  -5.0098  -5.0006  -4.9864  -4.9806  -4.9670  -4.9600
    -4.3262  -4.0954  -3.8185  -3.7858  -3.5650  -3.5539  -3.2474  -2.9902
    -0.7106  -0.6600  -0.6228  -0.5473  -0.5320  -0.4745  -0.4223  -0.3619
    -0.1640  -0.1004  -0.0751   0.0107   0.3940   0.4567   0.4797   0.5117
     0.5563   0.5799   0.6083   0.6276   0.6972   0.7150   0.7516   0.7682
     0.8761   0.9063   0.9574   1.0466   1.0888   1.1008   1.1400   1.1613
     1.1962   1.2128   1.2333   1.2583   1.2746   1.3177   1.3435   1.3624
     1.4011   1.4094   1.4477   1.4777   1.5055   1.5229   1.5339   1.5412
     1.5630   1.5932   1.6374   1.6479   1.6697   1.6851   1.7078   1.7411
     1.7722   1.8111   1.8311   1.8487   1.9105   1.9390   2.0310   2.0668
     2.0895   2.1345   2.2605   2.2886   2.3932   2.4485   2.8154   2.8860

          k =-0.1250-0.3750-0.1250 (132608 PWs)   bands (ev):

   -18.5276 -18.4604 -18.3830 -18.3738 -18.3715 -18.3651 -18.3639 -18.3543
   -18.3468 -18.3157 -18.3088 -18.3085 -18.3021 -18.2994 -18.2956 -18.2825
   -18.2717 -18.2618 -18.2560 -18.2523 -18.2452 -18.2083 -18.2038 -18.2023
   -18.2011 -18.1998 -18.1997 -18.1927 -18.1904 -18.1884 -18.1878 -18.1841
   -18.1834 -18.1826 -18.1787 -18.1775 -18.1754 -18.1748 -18.1663 -18.1512
   -18.1480 -18.1426 -18.1381 -18.1338 -18.1289 -18.1188 -18.1175 -18.1116
    -9.4166  -9.3397  -9.3169  -9.2468  -9.1874  -9.1613  -9.1071  -9.0693
    -9.0314  -8.9783  -8.9582  -8.9304  -8.8995  -8.8964  -8.8684  -8.8579
    -8.8411  -8.8105  -8.7486  -8.6648  -8.6464  -8.6087  -8.5305  -8.4571
    -5.2907  -5.2785  -5.2688  -5.2318  -5.2239  -5.2115  -5.1501  -5.1483
    -5.1428  -5.1390  -5.1270  -5.1235  -5.1074  -5.0985  -5.0903  -5.0866
    -5.0808  -5.0733  -5.0096  -5.0006  -4.9865  -4.9805  -4.9670  -4.9600
    -4.3263  -4.0941  -3.8265  -3.7800  -3.5757  -3.5391  -3.2534  -2.9869
    -0.7078  -0.6541  -0.6199  -0.5532  -0.5376  -0.4878  -0.4220  -0.3629
    -0.1492  -0.0937  -0.0808   0.0175   0.3796   0.4511   0.4807   0.5128
     0.5564   0.5754   0.6042   0.6225   0.7107   0.7284   0.7457   0.7691
     0.8852   0.8942   0.9678   1.0359   1.0939   1.1239   1.1368   1.1501
     1.1768   1.2171   1.2606   1.2727   1.2990   1.3148   1.3314   1.3635
     1.3726   1.4062   1.4369   1.4680   1.4881   1.5084   1.5279   1.5594
     1.5895   1.6171   1.6376   1.6518   1.6573   1.6748   1.7144   1.7342
     1.7565   1.7978   1.8164   1.8389   1.9299   1.9566   2.0308   2.0721
     2.1080   2.1358   2.2281   2.2978   2.3876   2.4657   2.7979   2.8951

          k = 0.1250 0.3750-0.1250 (132608 PWs)   bands (ev):

   -18.5276 -18.4604 -18.3830 -18.3738 -18.3715 -18.3651 -18.3639 -18.3543
   -18.3468 -18.3157 -18.3088 -18.3085 -18.3021 -18.2994 -18.2956 -18.2825
   -18.2717 -18.2618 -18.2560 -18.2523 -18.2452 -18.2083 -18.2038 -18.2023
   -18.2011 -18.1998 -18.1997 -18.1927 -18.1904 -18.1884 -18.1878 -18.1841
   -18.1834 -18.1826 -18.1787 -18.1775 -18.1754 -18.1748 -18.1663 -18.1512
   -18.1480 -18.1426 -18.1381 -18.1338 -18.1289 -18.1188 -18.1175 -18.1116
    -9.4178  -9.3339  -9.3197  -9.2504  -9.1835  -9.1609  -9.1149  -9.0651
    -9.0266  -8.9779  -8.9642  -8.9283  -8.9079  -8.8877  -8.8691  -8.8579
    -8.8394  -8.8109  -8.7496  -8.6642  -8.6473  -8.6084  -8.5304  -8.4570
    -5.2906  -5.2785  -5.2688  -5.2317  -5.2240  -5.2115  -5.1501  -5.1483
    -5.1428  -5.1389  -5.1270  -5.1236  -5.1072  -5.0988  -5.0904  -5.0860
    -5.0810  -5.0736  -5.0095  -5.0006  -4.9863  -4.9806  -4.9670  -4.9601
    -4.3264  -4.0953  -3.8182  -3.7856  -3.5664  -3.5509  -3.2530  -2.9862
    -0.7110  -0.6580  -0.6168  -0.5608  -0.5310  -0.4828  -0.4183  -0.3692
    -0.1478  -0.0930  -0.0757   0.0294   0.3707   0.4448   0.4709   0.5104
     0.5535   0.5851   0.5966   0.6299   0.7047   0.7246   0.7470   0.7707
     0.8675   0.9173   0.9762   1.0555   1.0717   1.1143   1.1215   1.1396
     1.2002   1.2197   1.2441   1.2743   1.2906   1.3110   1.3484   1.3663
     1.3889   1.3993   1.4414   1.4763   1.5003   1.5169   1.5265   1.5543
     1.5845   1.6065   1.6249   1.6426   1.6782   1.6898   1.7088   1.7385
     1.7645   1.7900   1.8099   1.8182   1.9279   1.9628   2.0372   2.0730
     2.1066   2.1373   2.2542   2.2673   2.3983   2.4627   2.7858   2.9078

          k = 0.1250-0.3750 0.1250 (132608 PWs)   bands (ev):

   -18.5276 -18.4604 -18.3830 -18.3738 -18.3715 -18.3651 -18.3639 -18.3543
   -18.3468 -18.3157 -18.3088 -18.3085 -18.3021 -18.2994 -18.2956 -18.2825
   -18.2717 -18.2618 -18.2560 -18.2523 -18.2452 -18.2083 -18.2038 -18.2023
   -18.2011 -18.1998 -18.1997 -18.1927 -18.1904 -18.1884 -18.1878 -18.1841
   -18.1834 -18.1826 -18.1787 -18.1775 -18.1754 -18.1748 -18.1663 -18.1512
   -18.1480 -18.1426 -18.1381 -18.1338 -18.1289 -18.1188 -18.1175 -18.1116
    -9.4176  -9.3345  -9.3199  -9.2497  -9.1856  -9.1605  -9.1075  -9.0691
    -9.0314  -8.9770  -8.9607  -8.9348  -8.9060  -8.8771  -8.8743  -8.8572
    -8.8424  -8.8105  -8.7502  -8.6636  -8.6474  -8.6086  -8.5305  -8.4570
    -5.2907  -5.2787  -5.2687  -5.2317  -5.2239  -5.2117  -5.1500  -5.1484
    -5.1428  -5.1390  -5.1267  -5.1238  -5.1074  -5.0985  -5.0904  -5.0866
    -5.0806  -5.0735  -5.0095  -5.0007  -4.9864  -4.9806  -4.9670  -4.9601
    -4.3261  -4.0956  -3.8265  -3.7756  -3.5709  -3.5501  -3.2473  -2.9903
    -0.7099  -0.6444  -0.6166  -0.5715  -0.5323  -0.4809  -0.4178  -0.3660
    -0.1619  -0.1106  -0.0608   0.0235   0.3899   0.4417   0.4730   0.5113
     0.5606   0.5841   0.5922   0.6391   0.6858   0.7213   0.7548   0.7758
     0.8914   0.8992   0.9543   1.0447   1.0839   1.1165   1.1421   1.1593
     1.1770   1.2071   1.2489   1.2799   1.2854   1.3169   1.3416   1.3788
     1.3918   1.4076   1.4307   1.4728   1.4962   1.5123   1.5264   1.5562
     1.5733   1.6123   1.6203   1.6464   1.6645   1.6821   1.7070   1.7416
     1.7641   1.8033   1.8107   1.8394   1.9163   1.9499   2.0414   2.0714
     2.1138   2.1375   2.2327   2.2903   2.4119   2.4498   2.7952   2.8937

          k =-0.1250-0.3750 0.3750 (132616 PWs)   bands (ev):

   -18.5276 -18.4604 -18.3830 -18.3738 -18.3715 -18.3651 -18.3639 -18.3543
   -18.3468 -18.3157 -18.3088 -18.3085 -18.3021 -18.2994 -18.2956 -18.2825
   -18.2717 -18.2618 -18.2560 -18.2523 -18.2452 -18.2083 -18.2038 -18.2023
   -18.2011 -18.1998 -18.1997 -18.1927 -18.1904 -18.1884 -18.1878 -18.1841
   -18.1834 -18.1826 -18.1787 -18.1775 -18.1754 -18.1748 -18.1663 -18.1512
   -18.1480 -18.1426 -18.1381 -18.1338 -18.1289 -18.1188 -18.1175 -18.1116
    -9.4016  -9.3468  -9.2953  -9.2603  -9.2091  -9.1799  -9.1112  -9.0706
    -9.0130  -8.9828  -8.9566  -8.9271  -8.9114  -8.8880  -8.8654  -8.8516
    -8.8301  -8.8088  -8.7497  -8.6630  -8.6480  -8.6093  -8.5343  -8.4593
    -5.2906  -5.2785  -5.2689  -5.2316  -5.2239  -5.2115  -5.1499  -5.1482
    -5.1429  -5.1388  -5.1271  -5.1238  -5.1073  -5.0981  -5.0905  -5.0861
    -5.0813  -5.0738  -5.0091  -5.0002  -4.9879  -4.9792  -4.9673  -4.9602
    -4.2004  -4.0309  -3.9115  -3.7591  -3.6503  -3.4987  -3.3654  -3.1823
    -0.6605  -0.6119  -0.5778  -0.4718  -0.3581  -0.2854  -0.2282  -0.1361
    -0.0783  -0.0318   0.0464   0.1259   0.3242   0.4077   0.4500   0.4761
     0.4957   0.5419   0.5733   0.5918   0.6208   0.6576   0.6862   0.7383
     0.7847   0.8912   0.9064   0.9587   0.9858   1.0204   1.0537   1.0844
     1.1317   1.1802   1.2015   1.2116   1.2484   1.2681   1.3162   1.3454
     1.3834   1.4146   1.4541   1.4826   1.5152   1.5604   1.5735   1.5944
     1.6186   1.6366   1.6484   1.6666   1.6959   1.7115   1.7236   1.7519
     1.7754   1.8103   1.8283   1.8726   1.9011   1.9459   1.9717   2.0255
     2.0479   2.0818   2.1473   2.1854   2.2698   2.4206   2.4904   2.5991

          k =-0.1250 0.3750-0.3750 (132616 PWs)   bands (ev):

   -18.5276 -18.4604 -18.3830 -18.3738 -18.3715 -18.3651 -18.3639 -18.3543
   -18.3468 -18.3157 -18.3088 -18.3085 -18.3021 -18.2994 -18.2956 -18.2825
   -18.2717 -18.2618 -18.2560 -18.2523 -18.2452 -18.2083 -18.2038 -18.2023
   -18.2011 -18.1998 -18.1997 -18.1927 -18.1904 -18.1884 -18.1878 -18.1841
   -18.1834 -18.1826 -18.1787 -18.1775 -18.1754 -18.1748 -18.1663 -18.1512
   -18.1480 -18.1426 -18.1381 -18.1338 -18.1289 -18.1188 -18.1175 -18.1116
    -9.4017  -9.3442  -9.3020  -9.2579  -9.2023  -9.1850  -9.1045  -9.0757
    -9.0209  -8.9804  -8.9518  -8.9303  -8.9097  -8.8824  -8.8706  -8.8456
    -8.8363  -8.8083  -8.7501  -8.6624  -8.6479  -8.6096  -8.5343  -8.4592
    -5.2907  -5.2787  -5.2687  -5.2315  -5.2238  -5.2117  -5.1497  -5.1484
    -5.1428  -5.1389  -5.1269  -5.1239  -5.1074  -5.0979  -5.0904  -5.0868
    -5.0808  -5.0737  -5.0092  -5.0003  -4.9880  -4.9792  -4.9673  -4.9602
    -4.2000  -4.0299  -3.9153  -3.7603  -3.6457  -3.4985  -3.3631  -3.1860
    -0.6562  -0.6201  -0.5670  -0.4685  -0.3580  -0.2881  -0.2245  -0.1482
    -0.0884  -0.0347   0.0474   0.1222   0.3306   0.4236   0.4451   0.4615
     0.5096   0.5429   0.5724   0.5908   0.6219   0.6581   0.6953   0.7391
     0.7905   0.8791   0.9114   0.9394   0.9793   1.0349   1.0587   1.1056
     1.1306   1.1747   1.1857   1.2162   1.2436   1.2898   1.3114   1.3443
     1.3750   1.4216   1.4456   1.4821   1.5119   1.5645   1.5696   1.5905
     1.6129   1.6250   1.6471   1.6677   1.6878   1.7089   1.7344   1.7680
     1.7811   1.7947   1.8377   1.8651   1.8978   1.9523   1.9690   2.0284
     2.0455   2.0838   2.1461   2.1823   2.2838   2.4334   2.4829   2.5891

          k = 0.1250-0.3750-0.3750 (132616 PWs)   bands (ev):

   -18.5276 -18.4604 -18.3830 -18.3738 -18.3715 -18.3651 -18.3639 -18.3543
   -18.3468 -18.3157 -18.3088 -18.3085 -18.3021 -18.2994 -18.2956 -18.2825
   -18.2717 -18.2618 -18.2560 -18.2523 -18.2452 -18.2083 -18.2038 -18.2023
   -18.2011 -18.1998 -18.1997 -18.1927 -18.1904 -18.1884 -18.1878 -18.1841
   -18.1834 -18.1826 -18.1787 -18.1775 -18.1754 -18.1748 -18.1663 -18.1512
   -18.1480 -18.1426 -18.1381 -18.1338 -18.1289 -18.1188 -18.1175 -18.1116
    -9.3981  -9.3559  -9.2874  -9.2587  -9.2194  -9.1747  -9.0982  -9.0798
    -9.0137  -8.9918  -8.9563  -8.9259  -8.8992  -8.8903  -8.8724  -8.8449
    -8.8351  -8.8081  -8.7497  -8.6630  -8.6480  -8.6092  -8.5343  -8.4593
    -5.2907  -5.2787  -5.2687  -5.2315  -5.2239  -5.2117  -5.1497  -5.1483
    -5.1430  -5.1389  -5.1270  -5.1238  -5.1073  -5.0982  -5.0903  -5.0862
    -5.0812  -5.0737  -5.0094  -5.0002  -4.9880  -4.9792  -4.9673  -4.9601
    -4.2008  -4.0243  -3.9248  -3.7404  -3.6700  -3.4847  -3.3680  -3.1857
    -0.6625  -0.6192  -0.5703  -0.4661  -0.3456  -0.2766  -0.2046  -0.1894
    -0.0697  -0.0376   0.0360   0.0965   0.3435   0.4301   0.4489   0.4965
     0.5245   0.5420   0.5578   0.5957   0.6118   0.6459   0.6924   0.7329
     0.7858   0.8681   0.8926   0.9580   0.9921   1.0372   1.0609   1.0941
     1.1176   1.1827   1.1904   1.2197   1.2355   1.2634   1.3107   1.3617
     1.3788   1.4204   1.4655   1.4847   1.5147   1.5390   1.5748   1.5920
     1.6064   1.6247   1.6464   1.6577   1.7119   1.7340   1.7424   1.7539
     1.7761   1.8178   1.8406   1.8710   1.8916   1.9280   1.9790   2.0252
     2.0389   2.0745   2.1239   2.1931   2.3074   2.3752   2.5390   2.5775

          k = 0.3750 0.1250-0.3750 (132616 PWs)   bands (ev):

   -18.5276 -18.4604 -18.3830 -18.3738 -18.3715 -18.3651 -18.3639 -18.3543
   -18.3468 -18.3157 -18.3088 -18.3085 -18.3021 -18.2994 -18.2956 -18.2825
   -18.2717 -18.2618 -18.2560 -18.2523 -18.2452 -18.2083 -18.2038 -18.2023
   -18.2011 -18.1997 -18.1997 -18.1927 -18.1904 -18.1884 -18.1878 -18.1841
   -18.1834 -18.1826 -18.1787 -18.1775 -18.1754 -18.1748 -18.1663 -18.1512
   -18.1480 -18.1426 -18.1381 -18.1338 -18.1290 -18.1188 -18.1175 -18.1116
    -9.3991  -9.3516  -9.2922  -9.2597  -9.2339  -9.1490  -9.1184  -9.0677
    -8.9901  -8.9753  -8.9571  -8.9434  -8.9262  -8.9041  -8.8691  -8.8447
    -8.8202  -8.8085  -8.7565  -8.6544  -8.6490  -8.6061  -8.5379  -8.4590
    -5.2907  -5.2785  -5.2688  -5.2317  -5.2240  -5.2116  -5.1493  -5.1467
    -5.1441  -5.1369  -5.1287  -5.1249  -5.1066  -5.0986  -5.0909  -5.0873
    -5.0794  -5.0741  -5.0092  -5.0001  -4.9885  -4.9791  -4.9665  -4.9607
    -4.1982  -3.9994  -3.9594  -3.7622  -3.6634  -3.4406  -3.3939  -3.1713
    -0.6731  -0.6442  -0.5764  -0.5345  -0.3794  -0.2265  -0.2034  -0.1368
    -0.0774  -0.0372   0.0544   0.1211   0.3421   0.4100   0.4537   0.4678
     0.5151   0.5363   0.5678   0.5974   0.6335   0.6540   0.6942   0.7202
     0.7975   0.8642   0.8951   0.9307   0.9845   0.9998   1.0660   1.0967
     1.1283   1.1854   1.2214   1.2616   1.2749   1.3102   1.3453   1.3634
     1.4069   1.4299   1.4519   1.4658   1.4957   1.5095   1.5717   1.5778
     1.6052   1.6119   1.6478   1.6634   1.6807   1.7280   1.7355   1.7742
     1.7859   1.8123   1.8483   1.8849   1.9199   1.9465   1.9886   2.0064
     2.0545   2.0684   2.0781   2.1754   2.2706   2.4163   2.4454   2.6045

          k =-0.3750-0.1250-0.3750 (132616 PWs)   bands (ev):

   -18.5276 -18.4604 -18.3830 -18.3738 -18.3715 -18.3651 -18.3639 -18.3543
   -18.3468 -18.3157 -18.3088 -18.3085 -18.3021 -18.2994 -18.2956 -18.2825
   -18.2717 -18.2618 -18.2560 -18.2523 -18.2452 -18.2083 -18.2038 -18.2023
   -18.2011 -18.1997 -18.1997 -18.1927 -18.1904 -18.1884 -18.1878 -18.1841
   -18.1834 -18.1826 -18.1787 -18.1775 -18.1754 -18.1748 -18.1663 -18.1512
   -18.1480 -18.1426 -18.1381 -18.1338 -18.1290 -18.1188 -18.1175 -18.1116
    -9.3979  -9.3514  -9.3001  -9.2600  -9.2207  -9.1649  -9.0968  -9.0796
    -8.9967  -8.9751  -8.9498  -8.9447  -8.9231  -8.9072  -8.8669  -8.8459
    -8.8240  -8.8065  -8.7557  -8.6548  -8.6481  -8.6065  -8.5380  -8.4590
    -5.2907  -5.2784  -5.2688  -5.2318  -5.2239  -5.2115  -5.1494  -5.1466
    -5.1441  -5.1369  -5.1288  -5.1249  -5.1066  -5.0982  -5.0907  -5.0877
    -5.0794  -5.0739  -5.0093  -5.0002  -4.9886  -4.9789  -4.9665  -4.9607
    -4.1967  -4.0136  -3.9429  -3.7728  -3.6514  -3.4693  -3.3650  -3.1768
    -0.6760  -0.6355  -0.5842  -0.5298  -0.3550  -0.2837  -0.1857  -0.1116
    -0.0935  -0.0002   0.0234   0.0890   0.3437   0.4065   0.4487   0.4772
     0.5365   0.5549   0.5656   0.6103   0.6294   0.6392   0.7070   0.7387
     0.7936   0.8625   0.8870   0.9442   0.9756   1.0003   1.0430   1.1087
     1.1349   1.1885   1.2241   1.2316   1.2896   1.3039   1.3326   1.3578
     1.3944   1.4162   1.4491   1.4798   1.5001   1.5117   1.5734   1.5893
     1.5987   1.6147   1.6533   1.6654   1.6928   1.7185   1.7330   1.7632
     1.7897   1.8343   1.8468   1.8893   1.9246   1.9462   1.9747   2.0119
     2.0314   2.0545   2.0992   2.1737   2.2749   2.3713   2.5039   2.5915

          k = 0.3750-0.1250 0.3750 (132616 PWs)   bands (ev):

   -18.5276 -18.4604 -18.3830 -18.3738 -18.3715 -18.3651 -18.3639 -18.3543
   -18.3468 -18.3157 -18.3088 -18.3085 -18.3021 -18.2994 -18.2956 -18.2825
   -18.2717 -18.2618 -18.2560 -18.2523 -18.2452 -18.2083 -18.2038 -18.2023
   -18.2011 -18.1997 -18.1997 -18.1927 -18.1904 -18.1884 -18.1878 -18.1841
   -18.1834 -18.1826 -18.1787 -18.1775 -18.1754 -18.1748 -18.1663 -18.1512
   -18.1480 -18.1426 -18.1381 -18.1338 -18.1290 -18.1188 -18.1175 -18.1116
    -9.3994  -9.3486  -9.3009  -9.2562  -9.2292  -9.1558  -9.1080  -9.0723
    -8.9963  -8.9766  -8.9542  -8.9454  -8.9212  -8.9026  -8.8665  -8.8460
    -8.8241  -8.8074  -8.7568  -8.6532  -8.6493  -8.6065  -8.5380  -8.4589
    -5.2907  -5.2786  -5.2686  -5.2316  -5.2239  -5.2117  -5.1493  -5.1468
    -5.1441  -5.1370  -5.1286  -5.1249  -5.1066  -5.0984  -5.0908  -5.0878
    -5.0792  -5.0741  -5.0092  -5.0003  -4.9886  -4.9790  -4.9665  -4.9607
    -4.1967  -4.0129  -3.9459  -3.7673  -3.6555  -3.4663  -3.3655  -3.1787
    -0.6717  -0.6491  -0.5770  -0.5192  -0.3566  -0.2872  -0.1813  -0.1234
    -0.0864  -0.0151   0.0239   0.0978   0.3454   0.4103   0.4535   0.4786
     0.5415   0.5607   0.5746   0.5925   0.6195   0.6435   0.7039   0.7472
     0.7780   0.8526   0.8953   0.9208   0.9833   1.0029   1.0452   1.1100
     1.1377   1.1814   1.2222   1.2692   1.2775   1.2848   1.3329   1.3576
     1.4081   1.4338   1.4710   1.4794   1.5116   1.5197   1.5531   1.5730
     1.5908   1.6152   1.6413   1.6577   1.6873   1.7136   1.7232   1.7833
     1.7860   1.8329   1.8537   1.8885   1.9164   1.9531   1.9657   2.0009
     2.0516   2.0773   2.0903   2.1671   2.2905   2.3695   2.5005   2.5817

          k =-0.3750 0.1250 0.3750 (132616 PWs)   bands (ev):

   -18.5276 -18.4604 -18.3830 -18.3738 -18.3715 -18.3651 -18.3639 -18.3543
   -18.3468 -18.3157 -18.3088 -18.3085 -18.3021 -18.2994 -18.2956 -18.2825
   -18.2717 -18.2618 -18.2560 -18.2523 -18.2452 -18.2083 -18.2038 -18.2023
   -18.2011 -18.1997 -18.1997 -18.1927 -18.1904 -18.1884 -18.1878 -18.1841
   -18.1834 -18.1826 -18.1787 -18.1775 -18.1754 -18.1748 -18.1663 -18.1512
   -18.1480 -18.1426 -18.1381 -18.1338 -18.1290 -18.1188 -18.1175 -18.1116
    -9.3965  -9.3561  -9.2906  -9.2651  -9.2278  -9.1511  -9.1066  -9.0767
    -8.9899  -8.9866  -8.9507  -8.9473  -8.9168  -8.9055  -8.8686  -8.8436
    -8.8225  -8.8088  -8.7563  -8.6539  -8.6496  -8.6060  -8.5378  -8.4590
    -5.2907  -5.2786  -5.2686  -5.2316  -5.2240  -5.2118  -5.1492  -5.1466
    -5.1441  -5.1370  -5.1287  -5.1250  -5.1066  -5.0986  -5.0907  -5.0873
    -5.0793  -5.0741  -5.0095  -5.0001  -4.9886  -4.9790  -4.9665  -4.9606
    -4.1982  -3.9985  -3.9600  -3.7685  -3.6569  -3.4384  -3.3936  -3.1745
    -0.6768  -0.6468  -0.5789  -0.5186  -0.3677  -0.2254  -0.2087  -0.1474
    -0.0830  -0.0457   0.0454   0.1213   0.3405   0.4149   0.4520   0.4794
     0.5188   0.5392   0.5773   0.6000   0.6463   0.6602   0.6849   0.7154
     0.8059   0.8432   0.8815   0.9406   0.9840   1.0061   1.0643   1.1086
     1.1252   1.1831   1.2312   1.2569   1.2836   1.3065   1.3145   1.3491
     1.3805   1.4304   1.4606   1.4868   1.5032   1.5324   1.5528   1.5820
     1.5993   1.6263   1.6443   1.6635   1.6809   1.7235   1.7408   1.7667
     1.7972   1.8318   1.8621   1.8783   1.9087   1.9421   1.9668   2.0077
     2.0505   2.0633   2.0883   2.1533   2.2762   2.4304   2.4675   2.5875

          k = 0.3750-0.3750 0.1250 (132616 PWs)   bands (ev):

   -18.5276 -18.4604 -18.3830 -18.3738 -18.3715 -18.3651 -18.3639 -18.3543
   -18.3468 -18.3157 -18.3088 -18.3085 -18.3021 -18.2994 -18.2956 -18.2825
   -18.2717 -18.2618 -18.2560 -18.2523 -18.2452 -18.2083 -18.2038 -18.2023
   -18.2011 -18.1998 -18.1997 -18.1927 -18.1904 -18.1884 -18.1878 -18.1841
   -18.1834 -18.1826 -18.1787 -18.1775 -18.1754 -18.1748 -18.1663 -18.1512
   -18.1480 -18.1426 -18.1381 -18.1338 -18.1289 -18.1188 -18.1175 -18.1116
    -9.4005  -9.3414  -9.3013  -9.2712  -9.2002  -9.1698  -9.1163  -9.0755
    -9.0304  -8.9709  -8.9520  -8.9357  -8.8956  -8.8811  -8.8623  -8.8546
    -8.8296  -8.8135  -8.7599  -8.6618  -8.6494  -8.6069  -8.5351  -8.4581
    -5.2907  -5.2788  -5.2688  -5.2315  -5.2238  -5.2114  -5.1499  -5.1493
    -5.1430  -5.1391  -5.1266  -5.1239  -5.1060  -5.0981  -5.0906  -5.0883
    -5.0792  -5.0741  -5.0095  -5.0008  -4.9863  -4.9805  -4.9666  -4.9602
    -4.2032  -4.0147  -3.9388  -3.7210  -3.6725  -3.4956  -3.3775  -3.1785
    -0.6770  -0.5602  -0.5205  -0.4216  -0.3915  -0.2953  -0.2214  -0.1620
    -0.1117  -0.0828   0.0258   0.1314   0.3191   0.4056   0.4587   0.4636
     0.5012   0.5229   0.5659   0.5853   0.6333   0.6693   0.6975   0.7445
     0.7793   0.8528   0.9112   0.9432   0.9975   1.0348   1.0625   1.1088
     1.1426   1.1824   1.2001   1.2318   1.2666   1.2964   1.3136   1.3506
     1.3821   1.4284   1.4658   1.4825   1.5186   1.5363   1.5636   1.5835
     1.5999   1.6214   1.6323   1.6509   1.6738   1.6961   1.7222   1.7498
     1.7685   1.7991   1.8402   1.8579   1.8932   1.9371   1.9813   2.0102
     2.0619   2.0897   2.1144   2.1664   2.3054   2.4100   2.5730   2.6389

          k =-0.3750-0.3750-0.1250 (132616 PWs)   bands (ev):

   -18.5276 -18.4604 -18.3830 -18.3738 -18.3715 -18.3651 -18.3639 -18.3543
   -18.3468 -18.3157 -18.3088 -18.3085 -18.3021 -18.2994 -18.2956 -18.2825
   -18.2717 -18.2618 -18.2560 -18.2523 -18.2452 -18.2083 -18.2038 -18.2023
   -18.2011 -18.1998 -18.1997 -18.1927 -18.1904 -18.1884 -18.1878 -18.1841
   -18.1834 -18.1826 -18.1787 -18.1775 -18.1754 -18.1748 -18.1663 -18.1512
   -18.1480 -18.1426 -18.1381 -18.1338 -18.1289 -18.1188 -18.1175 -18.1116
    -9.3997  -9.3383  -9.3124  -9.2644  -9.1949  -9.1736  -9.1168  -9.0779
    -9.0302  -8.9696  -8.9514  -8.9311  -8.8929  -8.8907  -8.8622  -8.8542
    -8.8300  -8.8128  -8.7582  -8.6632  -8.6483  -8.6069  -8.5351  -8.4582
    -5.2907  -5.2786  -5.2689  -5.2316  -5.2239  -5.2112  -5.1502  -5.1490
    -5.1431  -5.1391  -5.1269  -5.1237  -5.1059  -5.0980  -5.0905  -5.0883
    -5.0794  -5.0740  -5.0096  -5.0007  -4.9865  -4.9804  -4.9666  -4.9602
    -4.2041  -4.0060  -3.9479  -3.7295  -3.6655  -3.4698  -3.4080  -3.1707
    -0.6758  -0.5615  -0.5227  -0.4183  -0.3634  -0.3251  -0.2711  -0.1826
    -0.0724  -0.0277   0.0608   0.1115   0.2870   0.3392   0.4646   0.4734
     0.5173   0.5436   0.5705   0.5963   0.6167   0.6681   0.7096   0.7278
     0.7821   0.8820   0.9118   0.9482   0.9946   1.0136   1.0687   1.1112
     1.1581   1.1937   1.2049   1.2304   1.2654   1.2749   1.3032   1.3395
     1.3787   1.4153   1.4519   1.4909   1.5279   1.5386   1.5536   1.5898
     1.6195   1.6288   1.6479   1.6577   1.6774   1.7024   1.7111   1.7436
     1.7729   1.7911   1.8312   1.8431   1.8666   1.9686   1.9912   2.0290
     2.0398   2.0700   2.1248   2.1534   2.2975   2.4530   2.5462   2.6461

          k = 0.3750 0.3750-0.1250 (132616 PWs)   bands (ev):

   -18.5276 -18.4604 -18.3830 -18.3738 -18.3715 -18.3651 -18.3639 -18.3543
   -18.3468 -18.3157 -18.3088 -18.3085 -18.3021 -18.2994 -18.2956 -18.2825
   -18.2717 -18.2618 -18.2560 -18.2523 -18.2452 -18.2083 -18.2038 -18.2023
   -18.2011 -18.1998 -18.1997 -18.1927 -18.1904 -18.1884 -18.1878 -18.1841
   -18.1834 -18.1826 -18.1787 -18.1775 -18.1754 -18.1748 -18.1663 -18.1512
   -18.1480 -18.1426 -18.1381 -18.1338 -18.1289 -18.1188 -18.1175 -18.1116
    -9.4010  -9.3398  -9.3026  -9.2711  -9.1986  -9.1700  -9.1232  -9.0706
    -9.0278  -8.9746  -8.9515  -8.9292  -8.8989  -8.8857  -8.8622  -8.8549
    -8.8276  -8.8130  -8.7595  -8.6626  -8.6491  -8.6066  -8.5351  -8.4582
    -5.2907  -5.2786  -5.2689  -5.2315  -5.2240  -5.2112  -5.1502  -5.1490
    -5.1430  -5.1391  -5.1269  -5.1237  -5.1057  -5.0985  -5.0907  -5.0878
    -5.0795  -5.0742  -5.0095  -5.0007  -4.9863  -4.9806  -4.9666  -4.9603
    -4.2044  -4.0082  -3.9450  -3.7164  -3.6794  -3.4710  -3.4075  -3.1696
    -0.6785  -0.5637  -0.5260  -0.4166  -0.3582  -0.3252  -0.2682  -0.1859
    -0.0692  -0.0138   0.0598   0.1160   0.2788   0.3435   0.4413   0.4716
     0.5303   0.5395   0.5622   0.5979   0.6306   0.6696   0.6903   0.7229
     0.7766   0.8880   0.9231   0.9587   0.9769   1.0132   1.0665   1.1205
     1.1450   1.1790   1.2087   1.2411   1.2630   1.2810   1.3059   1.3413
     1.3904   1.4318   1.4680   1.4727   1.5123   1.5316   1.5735   1.5936
     1.6096   1.6287   1.6456   1.6565   1.6740   1.6883   1.7243   1.7391
     1.7779   1.7913   1.8198   1.8463   1.8697   1.9700   1.9916   2.0271
     2.0595   2.0817   2.1174   2.1621   2.2696   2.4567   2.5338   2.6584

          k =-0.3750 0.3750 0.1250 (132616 PWs)   bands (ev):

   -18.5276 -18.4604 -18.3830 -18.3738 -18.3715 -18.3651 -18.3639 -18.3543
   -18.3468 -18.3157 -18.3088 -18.3085 -18.3021 -18.2994 -18.2956 -18.2825
   -18.2717 -18.2618 -18.2560 -18.2523 -18.2452 -18.2083 -18.2038 -18.2023
   -18.2011 -18.1998 -18.1997 -18.1927 -18.1904 -18.1884 -18.1878 -18.1841
   -18.1834 -18.1826 -18.1787 -18.1775 -18.1754 -18.1748 -18.1663 -18.1512
   -18.1480 -18.1426 -18.1381 -18.1338 -18.1289 -18.1188 -18.1175 -18.1116
    -9.3982  -9.3486  -9.2930  -9.2747  -9.2035  -9.1664  -9.1132  -9.0768
    -9.0298  -8.9775  -8.9542  -8.9302  -8.8900  -8.8864  -8.8645  -8.8523
    -8.8293  -8.8132  -8.7596  -8.6622  -8.6497  -8.6065  -8.5350  -8.4583
    -5.2908  -5.2787  -5.2687  -5.2314  -5.2239  -5.2114  -5.1498  -5.1491
    -5.1431  -5.1392  -5.1268  -5.1239  -5.1058  -5.0984  -5.0905  -5.0878
    -5.0794  -5.0742  -5.0098  -5.0006  -4.9864  -4.9805  -4.9666  -4.9602
    -4.2036  -4.0157  -3.9353  -3.7310  -3.6634  -3.4972  -3.3772  -3.1784
    -0.6767  -0.5707  -0.5205  -0.4312  -0.3674  -0.2880  -0.2256  -0.1492
    -0.1176  -0.0935   0.0207   0.1317   0.3103   0.4089   0.4542   0.4637
     0.5070   0.5387   0.5729   0.5837   0.6324   0.6605   0.6944   0.7406
     0.7730   0.8644   0.8949   0.9474   1.0104   1.0349   1.0632   1.1139
     1.1449   1.1806   1.2005   1.2174   1.2618   1.2915   1.3189   1.3331
     1.3971   1.4217   1.4615   1.4896   1.5097   1.5397   1.5646   1.5842
     1.5985   1.6190   1.6328   1.6732   1.6853   1.6883   1.7229   1.7505
     1.7929   1.7994   1.8423   1.8508   1.8958   1.9353   1.9736   2.0097
     2.0410   2.0798   2.1103   2.1757   2.2965   2.4222   2.5767   2.6393

          k =-0.3750-0.3750 0.3750 (132612 PWs)   bands (ev):

   -18.5276 -18.4604 -18.3830 -18.3738 -18.3715 -18.3651 -18.3639 -18.3543
   -18.3468 -18.3157 -18.3088 -18.3085 -18.3021 -18.2994 -18.2956 -18.2825
   -18.2717 -18.2618 -18.2560 -18.2523 -18.2452 -18.2083 -18.2038 -18.2023
   -18.2011 -18.1998 -18.1997 -18.1927 -18.1904 -18.1884 -18.1878 -18.1841
   -18.1834 -18.1826 -18.1787 -18.1775 -18.1754 -18.1748 -18.1663 -18.1512
   -18.1480 -18.1426 -18.1381 -18.1338 -18.1289 -18.1188 -18.1175 -18.1116
    -9.3897  -9.3354  -9.2881  -9.2691  -9.2315  -9.1793  -9.1373  -9.0922
    -8.9929  -8.9699  -8.9490  -8.9345  -8.9013  -8.8883  -8.8575  -8.8449
    -8.8231  -8.8117  -8.7593  -8.6616  -8.6501  -8.6087  -8.5375  -8.4600
    -5.2907  -5.2786  -5.2690  -5.2316  -5.2240  -5.2113  -5.1498  -5.1487
    -5.1429  -5.1389  -5.1269  -5.1238  -5.1065  -5.0987  -5.0907  -5.0874
    -5.0792  -5.0741  -5.0091  -5.0001  -4.9880  -4.9790  -4.9668  -4.9604
    -4.0810  -3.9266  -3.8415  -3.7948  -3.6763  -3.6104  -3.5274  -3.3499
    -0.4107  -0.3883  -0.3703  -0.3053  -0.2976  -0.1901  -0.1197  -0.1020
    -0.0598   0.0222   0.0686   0.1824   0.2838   0.3159   0.3855   0.4101
     0.4395   0.4893   0.5113   0.5508   0.5861   0.6082   0.6190   0.6997
     0.8323   0.8704   0.9293   0.9598   0.9642   0.9896   1.0168   1.0419
     1.0887   1.1090   1.1419   1.1676   1.1925   1.2173   1.2563   1.3184
     1.3442   1.3944   1.4615   1.4966   1.5386   1.5582   1.5852   1.6094
     1.6314   1.6637   1.6705   1.6909   1.7042   1.7374   1.7532   1.7691
     1.7889   1.8058   1.8374   1.8608   1.8894   1.9335   1.9577   1.9925
     2.0062   2.0471   2.0788   2.1078   2.1569   2.1860   2.2424   2.3407

          k =-0.3750 0.3750-0.3750 (132612 PWs)   bands (ev):

   -18.5276 -18.4604 -18.3830 -18.3738 -18.3715 -18.3651 -18.3639 -18.3543
   -18.3468 -18.3157 -18.3088 -18.3085 -18.3021 -18.2994 -18.2956 -18.2825
   -18.2717 -18.2618 -18.2560 -18.2523 -18.2452 -18.2083 -18.2038 -18.2023
   -18.2011 -18.1998 -18.1997 -18.1927 -18.1904 -18.1884 -18.1878 -18.1841
   -18.1834 -18.1826 -18.1787 -18.1775 -18.1754 -18.1748 -18.1663 -18.1512
   -18.1480 -18.1426 -18.1381 -18.1338 -18.1289 -18.1188 -18.1175 -18.1116
    -9.3898  -9.3309  -9.3012  -9.2625  -9.2284  -9.1801  -9.1332  -9.0964
    -8.9994  -8.9631  -8.9501  -8.9375  -8.8987  -8.8838  -8.8603  -8.8415
    -8.8275  -8.8119  -8.7594  -8.6609  -8.6500  -8.6090  -8.5375  -8.4600
    -5.2908  -5.2788  -5.2688  -5.2315  -5.2239  -5.2115  -5.1495  -5.1490
    -5.1429  -5.1389  -5.1267  -5.1239  -5.1067  -5.0985  -5.0907  -5.0878
    -5.0789  -5.0741  -5.0092  -5.0003  -4.9880  -4.9790  -4.9668  -4.9603
    -4.0790  -3.9233  -3.8671  -3.7703  -3.6811  -3.6154  -3.5140  -3.3578
    -0.4178  -0.3991  -0.3522  -0.2862  -0.2540  -0.1978  -0.1701  -0.0985
    -0.0701  -0.0044   0.0439   0.1775   0.3034   0.3747   0.3970   0.4131
     0.4338   0.4707   0.5170   0.5481   0.5600   0.6152   0.6441   0.7091
     0.8338   0.8640   0.8893   0.9318   0.9775   1.0081   1.0408   1.0602
     1.0807   1.1102   1.1192   1.1638   1.2029   1.2273   1.2525   1.3020
     1.3519   1.4057   1.4709   1.4990   1.5179   1.5404   1.5753   1.6097
     1.6338   1.6546   1.6684   1.6920   1.7068   1.7262   1.7471   1.7844
     1.8044   1.8237   1.8423   1.8526   1.8911   1.9328   1.9560   1.9794
     2.0043   2.0563   2.0889   2.1217   2.1400   2.1737   2.2749   2.3174

          k = 0.3750-0.3750-0.3750 (132612 PWs)   bands (ev):

   -18.5276 -18.4604 -18.3830 -18.3738 -18.3715 -18.3651 -18.3639 -18.3543
   -18.3468 -18.3157 -18.3088 -18.3085 -18.3021 -18.2994 -18.2956 -18.2825
   -18.2717 -18.2618 -18.2560 -18.2523 -18.2452 -18.2083 -18.2038 -18.2023
   -18.2011 -18.1998 -18.1997 -18.1927 -18.1904 -18.1884 -18.1878 -18.1841
   -18.1834 -18.1826 -18.1787 -18.1775 -18.1754 -18.1748 -18.1663 -18.1512
   -18.1480 -18.1426 -18.1381 -18.1338 -18.1289 -18.1188 -18.1175 -18.1116
    -9.3862  -9.3437  -9.2820  -9.2718  -9.2314  -9.1804  -9.1203  -9.1062
    -8.9938  -8.9754  -8.9490  -8.9340  -8.8946  -8.8868  -8.8611  -8.8403
    -8.8275  -8.8116  -8.7591  -8.6613  -8.6505  -8.6086  -8.5374  -8.4601
    -5.2908  -5.2788  -5.2688  -5.2314  -5.2239  -5.2115  -5.1495  -5.1488
    -5.1430  -5.1390  -5.1269  -5.1239  -5.1065  -5.0987  -5.0906  -5.0874
    -5.0791  -5.0741  -5.0095  -5.0001  -4.9880  -4.9790  -4.9668  -4.9603
    -4.0808  -3.9246  -3.8467  -3.7948  -3.6819  -3.6025  -3.5193  -3.3575
    -0.4416  -0.4027  -0.3403  -0.2770  -0.2397  -0.1815  -0.1520  -0.1035
    -0.0907  -0.0247   0.0374   0.1903   0.2868   0.3646   0.4046   0.4272
     0.4426   0.4767   0.5023   0.5585   0.5754   0.6063   0.6504   0.6740
     0.8304   0.8771   0.9017   0.9344   0.9802   1.0086   1.0240   1.0543
     1.0856   1.1095   1.1212   1.1735   1.1905   1.2375   1.2518   1.2959
     1.3359   1.4167   1.4568   1.4782   1.5164   1.5578   1.5974   1.6285
     1.6347   1.6534   1.6700   1.6850   1.7017   1.7501   1.7597   1.7771
     1.7874   1.8274   1.8471   1.8712   1.8836   1.9201   1.9511   1.9753
     2.0060   2.0376   2.0726   2.0937   2.1579   2.1932   2.2662   2.3362

     highest occupied level (ev):     3.1494

!    total energy              =   -2256.30045351 Ry
     estimated scf accuracy    <          4.7E-11 Ry

     The total energy is the sum of the following terms:
     one-electron contribution =    -992.87781230 Ry
     hartree contribution      =     624.48426040 Ry
     xc contribution           =    -647.55170789 Ry
     ewald contribution        =   -1240.35519372 Ry

     convergence has been achieved in  15 iterations

     Forces acting on atoms (cartesian axes, Ry/au):

     atom    1 type  1   force =     0.00279370    0.00052363    0.00141814
     atom    2 type  2   force =    -0.00003658    0.00163045   -0.01284272
     atom    3 type  3   force =    -0.00252135    0.00729484   -0.00388776
     atom    4 type  3   force =    -0.00017293    0.00129540    0.02540635
     atom    5 type  3   force =    -0.00654992   -0.01431838    0.01051071
     atom    6 type  1   force =     0.00797432    0.00226257   -0.01195986
     atom    7 type  2   force =    -0.00341089    0.00136351    0.00123347
     atom    8 type  3   force =    -0.01097195    0.00364014   -0.00155661
     atom    9 type  3   force =     0.00585273    0.00409853   -0.02177982
     atom   10 type  3   force =     0.00190306   -0.00987614   -0.00543485
     atom   11 type  1   force =     0.00287498   -0.00062546   -0.00615943
     atom   12 type  2   force =     0.00974354   -0.00520793   -0.00234980
     atom   13 type  3   force =     0.00741037   -0.01404323    0.00115681
     atom   14 type  3   force =     0.00071418   -0.00213617   -0.00683171
     atom   15 type  3   force =    -0.01093464    0.02073026    0.00213528
     atom   16 type  1   force =    -0.00121701    0.00493335   -0.00396141
     atom   17 type  2   force =     0.01197197   -0.00379745    0.01080890
     atom   18 type  3   force =     0.00488168    0.00532969   -0.00295616
     atom   19 type  3   force =     0.00177154    0.00676544    0.01697165
     atom   20 type  3   force =    -0.00376443   -0.00004393    0.00083010
     atom   21 type  1   force =     0.00058434   -0.00881542   -0.00299085
     atom   22 type  2   force =     0.00293239    0.01019022    0.02414492
     atom   23 type  3   force =     0.01147049    0.00001419   -0.00039416
     atom   24 type  3   force =    -0.00640385   -0.00242223    0.00822736
     atom   25 type  3   force =     0.00378521    0.00123548    0.00271943
     atom   26 type  1   force =     0.00147341   -0.00150296    0.00043156
     atom   27 type  2   force =     0.01245707   -0.00054895   -0.01273979
     atom   28 type  3   force =     0.00374313    0.00136688   -0.00413505
     atom   29 type  3   force =    -0.00297199   -0.00024446   -0.01564346
     atom   30 type  3   force =    -0.00193279    0.00676280    0.00144259
     atom   31 type  1   force =    -0.00144497    0.00185134   -0.00073004
     atom   32 type  2   force =    -0.01492213    0.00260815   -0.00750767
     atom   33 type  3   force =    -0.00610995   -0.00116891    0.00022437
     atom   34 type  3   force =    -0.00217869    0.00022331    0.00046956
     atom   35 type  3   force =     0.00080872   -0.01251677   -0.00263365
     atom   36 type  1   force =    -0.00125600   -0.00749782    0.00536811
     atom   37 type  2   force =    -0.00489991   -0.03048069    0.00611899
     atom   38 type  3   force =    -0.00761083    0.00767028   -0.00189380
     atom   39 type  3   force =    -0.00676657    0.00868280    0.00558817
     atom   40 type  3   force =     0.00093056    0.01477364    0.00318216

     Total force =     0.088490     Total SCF correction =     0.000028


     Computing stress (Cartesian axis) and pressure

          total   stress  (Ry/bohr**3)                   (kbar)     P=       -6.54
  -0.00004860  -0.00000328  -0.00000740           -7.15       -0.48       -1.09
  -0.00000328  -0.00004083   0.00000503           -0.48       -6.01        0.74
  -0.00000740   0.00000503  -0.00004384           -1.09        0.74       -6.45

 
     init_run     :     19.77s CPU     17.03s WALL (       1 calls)
     electrons    :    202.35s CPU    214.74s WALL (       1 calls)
     forces       :      8.77s CPU      3.93s WALL (       1 calls)
     stress       :     31.52s CPU     31.26s WALL (       1 calls)

     Called by init_run:
     wfcinit      :     12.06s CPU     13.98s WALL (       1 calls)
                                       13.98s GPU  (       1 calls)
     potinit      :      4.45s CPU      1.40s WALL (       1 calls)
     hinit0       :      2.70s CPU      0.98s WALL (       1 calls)

     Called by electrons:
     c_bands      :    121.61s CPU    172.35s WALL (      16 calls)
     sum_band     :     21.58s CPU     21.01s WALL (      16 calls)
                                       21.01s GPU  (      16 calls)
     v_of_rho     :     54.78s CPU     16.66s WALL (      16 calls)
     mix_rho      :      6.44s CPU      5.01s WALL (      16 calls)

     Called by c_bands:
     init_us_2    :      2.43s CPU      3.16s WALL (     280 calls)
                                        3.15s GPU  (     280 calls)
     cegterg      :     82.46s CPU    130.40s WALL (     128 calls)

     Called by *egterg:
     cdiaghg      :     13.62s CPU     25.59s WALL (     633 calls)
                                       25.55s GPU  (     633 calls)
     h_psi        :     56.00s CPU     75.57s WALL (     649 calls)
                                       75.11s GPU  (     649 calls)
     g_psi        :      0.00s CPU      0.38s WALL (     513 calls)
                                        0.37s GPU  (     513 calls)

     Called by h_psi:
     h_psi:calbec :      0.32s CPU     10.17s WALL (     649 calls)
                                       10.16s GPU  (     649 calls)
     vloc_psi     :     40.97s CPU     55.19s WALL (     649 calls)
                                       54.25s GPU  (     649 calls)
     add_vuspsi   :      0.33s CPU     10.12s WALL (     649 calls)
                                       10.11s GPU  (     649 calls)

     General routines
     calbec       :      0.32s CPU      0.39s WALL (     689 calls)
     fft          :     25.55s CPU      6.56s WALL (     185 calls)
                                        0.00s GPU  (       6 calls)
     ffts         :      2.63s CPU      0.67s WALL (      16 calls)
     fftw         :      0.65s CPU     63.75s WALL (   10670 calls)
                                       47.68s GPU  (   10670 calls)
 
     Parallel routines
 
     PWSCF        :   4m23.19s CPU   4m27.86s WALL

 
   This run was terminated on:  20: 0:31  22Apr2021            

=------------------------------------------------------------------------------=
   JOB DONE.
=------------------------------------------------------------------------------=
