
     Program PWSCF v.6.7MaX starts on 22Apr2021 at 20:21:41 

     This program is part of the open-source Quantum ESPRESSO suite
     for quantum simulation of materials; please cite
         "P. Giannozzi et al., J. Phys.:Condens. Matter 21 395502 (2009);
         "P. Giannozzi et al., J. Phys.:Condens. Matter 29 465901 (2017);
         "P. Giannozzi et al., J. Chem. Phys. 152 154105 (2020);
          URL http://www.quantum-espresso.org", 
     in publications or presentations arising from this work. More details at
     http://www.quantum-espresso.org/quote

     Parallel version (MPI & OpenMP), running on      16 processor cores
     Number of MPI processes:                 4
     Threads/MPI process:                     4

     MPI processes distributed on     1 nodes
     K-points division:     npool     =       4
     Reading input from ESP_82.pwi
Warning: card &CELL ignored
Warning: card / ignored

     Current dimensions of program PWSCF are:
     Max number of different atomic species (ntypx) = 10
     Max number of k-points (npk) =  40000
     Max angular momentum in pseudopotentials (lmaxx) =  3
     Message from routine read_pp_mesh:
     mesh size missing, using the one in header
     Message from routine read_pp_mesh:
     mesh size missing, using the one in header
     Message from routine read_pp_mesh:
     mesh size missing, using the one in header

     Subspace diagonalization in iterative solution of the eigenvalue problem:
     a serial algorithm will be used

 
     G-vector sticks info
     --------------------
     sticks:   dense  smooth     PW     G-vecs:    dense   smooth      PW
     Sum       12589   12589   3289              1061107  1061107  140905
 
     Using Slab Decomposition
 


     bravais-lattice index     =            0
     lattice parameter (alat)  =      23.7585  a.u.
     unit-cell volume          =   13410.8736 (a.u.)^3
     number of atoms/cell      =           40
     number of atomic types    =            3
     number of electrons       =       352.00
     number of Kohn-Sham states=          176
     kinetic-energy cutoff     =      70.0000  Ry
     charge density cutoff     =     280.0000  Ry
     scf convergence threshold =      1.0E-10
     mixing beta               =       0.7000
     number of iterations used =            8  plain     mixing
     Exchange-correlation= PBESOL
                           (   1   4  10   8   0   0   0)

     GPU acceleration is ACTIVE.


     celldm(1)=  23.758500  celldm(2)=   0.000000  celldm(3)=   0.000000
     celldm(4)=   0.000000  celldm(5)=   0.000000  celldm(6)=   0.000000

     crystal axes: (cart. coord. in units of alat)
               a(1) = (   1.000000   0.000000   0.000000 )  
               a(2) = (   0.000000   1.000000   0.000000 )  
               a(3) = (   0.000000   0.000000   1.000000 )  

     reciprocal axes: (cart. coord. in units 2 pi/alat)
               b(1) = (  1.000000  0.000000  0.000000 )  
               b(2) = (  0.000000  1.000000  0.000000 )  
               b(3) = (  0.000000  0.000000  1.000000 )  


     PseudoPot. # 1 for Cs read from file:
     /m100/home/userexternal/lmonacel/espresso/pseudo/Cs-nc-pbesol.upf
     MD5 check sum: 9d2f2206a14dc5b3b3f3fbfae186bed4
     Pseudo is Norm-conserving + core correction, Zval =  9.0
     Generated using ONCVPSP code by D. R. Hamann
     Using radial grid of 2384 points,  8 beta functions with: 
                l(1) =   0
                l(2) =   0
                l(3) =   1
                l(4) =   1
                l(5) =   2
                l(6) =   2
                l(7) =   3
                l(8) =   3

     PseudoPot. # 2 for Sn read from file:
     /m100/home/userexternal/lmonacel/espresso/pseudo/Sn-nc-pbesol.upf
     MD5 check sum: c2995d571af40102bfea7461443d92cf
     Pseudo is Norm-conserving + core correction, Zval = 14.0
     Generated using ONCVPSP code by D. R. Hamann
     Using radial grid of 1628 points,  6 beta functions with: 
                l(1) =   0
                l(2) =   0
                l(3) =   1
                l(4) =   1
                l(5) =   2
                l(6) =   2

     PseudoPot. # 3 for I  read from file:
     /m100/home/userexternal/lmonacel/espresso/pseudo/I-nc-pbesol.upf
     MD5 check sum: 80ed5ceb2eb9c553cfb6760a299d9c5b
     Pseudo is Norm-conserving + core correction, Zval =  7.0
     Generated using ONCVPSP code by D. R. Hamann
     Using radial grid of 1182 points,  6 beta functions with: 
                l(1) =   0
                l(2) =   0
                l(3) =   1
                l(4) =   1
                l(5) =   2
                l(6) =   2

     atomic species   valence    mass     pseudopotential
        Cs             9.00   132.90545     Cs( 1.00)
        Sn            14.00   118.71000     Sn( 1.00)
        I              7.00   126.90447     I ( 1.00)

     No symmetry found



   Cartesian axes

     site n.     atom                  positions (alat units)
         1           Cs  tau(   1) = (   0.2412727   0.2704829   0.2595539  )
         2           Sn  tau(   2) = (   0.0084912   0.0030268  -0.0160563  )
         3           I   tau(   3) = (   0.2555583  -0.0204286   0.0026210  )
         4           I   tau(   4) = (  -0.0290750  -0.0318790   0.2536432  )
         5           I   tau(   5) = (  -0.0134862   0.2638339   0.0248827  )
         6           Cs  tau(   6) = (   0.2593493   0.2372404   0.7649106  )
         7           Sn  tau(   7) = (   0.0192053  -0.0033382   0.4758796  )
         8           I   tau(   8) = (   0.2641150   0.0249751   0.4603448  )
         9           I   tau(   9) = (   0.0398408  -0.0040209   0.7619376  )
        10           I   tau(  10) = (  -0.0046221   0.2421591   0.5052746  )
        11           Cs  tau(  11) = (   0.2856169   0.7636202   0.2590191  )
        12           Sn  tau(  12) = (  -0.0051268   0.4970219  -0.0088894  )
        13           I   tau(  13) = (   0.2514173   0.4936652   0.0035778  )
        14           I   tau(  14) = (  -0.0074876   0.5055349   0.2594686  )
        15           I   tau(  15) = (  -0.0029626   0.7533434   0.0151978  )
        16           Cs  tau(  16) = (   0.2364829   0.7540724   0.7637146  )
        17           Sn  tau(  17) = (   0.0128671   0.5037987   0.4874879  )
        18           I   tau(  18) = (   0.2603776   0.5165352   0.4879479  )
        19           I   tau(  19) = (   0.0002178   0.4850558   0.7452709  )
        20           I   tau(  20) = (   0.0206751   0.7435515   0.4922842  )
        21           Cs  tau(  21) = (   0.7282457   0.2216082   0.2568359  )
        22           Sn  tau(  22) = (   0.4935687   0.0048299  -0.0031924  )
        23           I   tau(  23) = (   0.7529063  -0.0148853  -0.0259284  )
        24           I   tau(  24) = (   0.4932497  -0.0064359   0.2544435  )
        25           I   tau(  25) = (   0.5063081   0.2551677  -0.0172076  )
        26           Cs  tau(  26) = (   0.7636338   0.2864893   0.7449230  )
        27           Sn  tau(  27) = (   0.5129931  -0.0084736   0.5019640  )
        28           I   tau(  28) = (   0.7507448  -0.0213618   0.4984785  )
        29           I   tau(  29) = (   0.4736565  -0.0214386   0.7444815  )
        30           I   tau(  30) = (   0.5014378   0.2681326   0.4956178  )
        31           Cs  tau(  31) = (   0.7428128   0.7724770   0.2789885  )
        32           Sn  tau(  32) = (   0.4880906   0.5033010   0.0074444  )
        33           I   tau(  33) = (   0.7289821   0.5035344   0.0055419  )
        34           I   tau(  34) = (   0.4926882   0.5027904   0.2587304  )
        35           I   tau(  35) = (   0.4634490   0.7532339  -0.0016704  )
        36           Cs  tau(  36) = (   0.7475035   0.7417931   0.7572743  )
        37           Sn  tau(  37) = (   0.4982042   0.4926814   0.4926935  )
        38           I   tau(  38) = (   0.7688665   0.5161618   0.5020716  )
        39           I   tau(  39) = (   0.5100111   0.4919445   0.7612905  )
        40           I   tau(  40) = (   0.4915150   0.7574778   0.4810719  )

     number of k points=    32
                       cart. coord. in units 2pi/alat
        k(    1) = (   0.1250000   0.1250000   0.1250000), wk =   0.0625000
        k(    2) = (   0.1250000   0.1250000   0.3750000), wk =   0.0625000
        k(    3) = (   0.1250000   0.3750000   0.3750000), wk =   0.0625000
        k(    4) = (   0.3750000   0.3750000   0.3750000), wk =   0.0625000
        k(    5) = (  -0.1250000  -0.1250000   0.1250000), wk =   0.0625000
        k(    6) = (  -0.1250000   0.1250000  -0.1250000), wk =   0.0625000
        k(    7) = (   0.1250000  -0.1250000  -0.1250000), wk =   0.0625000
        k(    8) = (  -0.1250000  -0.1250000   0.3750000), wk =   0.0625000
        k(    9) = (  -0.1250000   0.1250000  -0.3750000), wk =   0.0625000
        k(   10) = (   0.1250000  -0.1250000  -0.3750000), wk =   0.0625000
        k(   11) = (   0.3750000  -0.1250000   0.1250000), wk =   0.0625000
        k(   12) = (  -0.3750000  -0.1250000  -0.1250000), wk =   0.0625000
        k(   13) = (   0.3750000   0.1250000  -0.1250000), wk =   0.0625000
        k(   14) = (  -0.3750000   0.1250000   0.1250000), wk =   0.0625000
        k(   15) = (  -0.1250000   0.3750000   0.1250000), wk =   0.0625000
        k(   16) = (  -0.1250000  -0.3750000  -0.1250000), wk =   0.0625000
        k(   17) = (   0.1250000   0.3750000  -0.1250000), wk =   0.0625000
        k(   18) = (   0.1250000  -0.3750000   0.1250000), wk =   0.0625000
        k(   19) = (  -0.1250000  -0.3750000   0.3750000), wk =   0.0625000
        k(   20) = (  -0.1250000   0.3750000  -0.3750000), wk =   0.0625000
        k(   21) = (   0.1250000  -0.3750000  -0.3750000), wk =   0.0625000
        k(   22) = (   0.3750000   0.1250000  -0.3750000), wk =   0.0625000
        k(   23) = (  -0.3750000  -0.1250000  -0.3750000), wk =   0.0625000
        k(   24) = (   0.3750000  -0.1250000   0.3750000), wk =   0.0625000
        k(   25) = (  -0.3750000   0.1250000   0.3750000), wk =   0.0625000
        k(   26) = (   0.3750000  -0.3750000   0.1250000), wk =   0.0625000
        k(   27) = (  -0.3750000  -0.3750000  -0.1250000), wk =   0.0625000
        k(   28) = (   0.3750000   0.3750000  -0.1250000), wk =   0.0625000
        k(   29) = (  -0.3750000   0.3750000   0.1250000), wk =   0.0625000
        k(   30) = (  -0.3750000  -0.3750000   0.3750000), wk =   0.0625000
        k(   31) = (  -0.3750000   0.3750000  -0.3750000), wk =   0.0625000
        k(   32) = (   0.3750000  -0.3750000  -0.3750000), wk =   0.0625000

     Dense  grid:  1061107 G-vectors     FFT dimensions: ( 128, 128, 128)

     Estimated max dynamical RAM per process >       6.82 GB

     Estimated total dynamical RAM >      27.27 GB

     Initial potential from superposition of free atoms

     starting charge  351.69472, renormalised to  352.00000
     Starting wfcs are  208 randomized atomic wfcs

     total cpu time spent up to now is       17.7 secs

     Self-consistent Calculation

     iteration #  1     ecut=    70.00 Ry     beta= 0.70
     Davidson diagonalization with overlap
     ethr =  1.00E-02,  avg # of iterations =  2.0

     Threshold (ethr) on eigenvalues was too large:
     Diagonalizing with lowered threshold

     Davidson diagonalization with overlap
     ethr =  2.04E-04,  avg # of iterations =  4.0

     total cpu time spent up to now is       38.7 secs

     total energy              =   -2256.05743538 Ry
     estimated scf accuracy    <       0.61703726 Ry

     iteration #  2     ecut=    70.00 Ry     beta= 0.70
     Davidson diagonalization with overlap
     ethr =  1.75E-04,  avg # of iterations =  3.3

     total cpu time spent up to now is       51.6 secs

     total energy              =   -2256.24378182 Ry
     estimated scf accuracy    <       0.27803863 Ry

     iteration #  3     ecut=    70.00 Ry     beta= 0.70
     Davidson diagonalization with overlap
     ethr =  7.90E-05,  avg # of iterations =  2.8

     total cpu time spent up to now is       63.3 secs

     total energy              =   -2256.29764631 Ry
     estimated scf accuracy    <       0.02600553 Ry

     iteration #  4     ecut=    70.00 Ry     beta= 0.70
     Davidson diagonalization with overlap
     ethr =  7.39E-06,  avg # of iterations =  4.0

     total cpu time spent up to now is       76.2 secs

     total energy              =   -2256.30612927 Ry
     estimated scf accuracy    <       0.00461498 Ry

     iteration #  5     ecut=    70.00 Ry     beta= 0.70
     Davidson diagonalization with overlap
     ethr =  1.31E-06,  avg # of iterations =  3.2

     total cpu time spent up to now is       88.5 secs

     total energy              =   -2256.30697694 Ry
     estimated scf accuracy    <       0.00084291 Ry

     iteration #  6     ecut=    70.00 Ry     beta= 0.70
     Davidson diagonalization with overlap
     ethr =  2.39E-07,  avg # of iterations =  4.0

     total cpu time spent up to now is      101.4 secs

     total energy              =   -2256.30716866 Ry
     estimated scf accuracy    <       0.00014638 Ry

     iteration #  7     ecut=    70.00 Ry     beta= 0.70
     Davidson diagonalization with overlap
     ethr =  4.16E-08,  avg # of iterations =  4.7

     total cpu time spent up to now is      114.5 secs

     total energy              =   -2256.30720481 Ry
     estimated scf accuracy    <       0.00002839 Ry

     iteration #  8     ecut=    70.00 Ry     beta= 0.70
     Davidson diagonalization with overlap
     ethr =  8.06E-09,  avg # of iterations =  4.0

     total cpu time spent up to now is      127.7 secs

     total energy              =   -2256.30721465 Ry
     estimated scf accuracy    <       0.00000221 Ry

     iteration #  9     ecut=    70.00 Ry     beta= 0.70
     Davidson diagonalization with overlap
     ethr =  6.28E-10,  avg # of iterations =  5.3

     total cpu time spent up to now is      142.8 secs

     total energy              =   -2256.30721590 Ry
     estimated scf accuracy    <       0.00000084 Ry

     iteration # 10     ecut=    70.00 Ry     beta= 0.70
     Davidson diagonalization with overlap
     ethr =  2.39E-10,  avg # of iterations =  4.0

     total cpu time spent up to now is      156.1 secs

     total energy              =   -2256.30721613 Ry
     estimated scf accuracy    <       0.00000013 Ry

     iteration # 11     ecut=    70.00 Ry     beta= 0.70
     Davidson diagonalization with overlap
     ethr =  3.58E-11,  avg # of iterations =  5.1

     total cpu time spent up to now is      170.7 secs

     total energy              =   -2256.30721619 Ry
     estimated scf accuracy    <       0.00000002 Ry

     iteration # 12     ecut=    70.00 Ry     beta= 0.70
     Davidson diagonalization with overlap
     ethr =  5.44E-12,  avg # of iterations =  5.6

     total cpu time spent up to now is      186.4 secs

     total energy              =   -2256.30721620 Ry
     estimated scf accuracy    <       0.00000001 Ry

     iteration # 13     ecut=    70.00 Ry     beta= 0.70
     Davidson diagonalization with overlap
     ethr =  2.90E-12,  avg # of iterations =  3.1

     total cpu time spent up to now is      198.8 secs

     total energy              =   -2256.30721620 Ry
     estimated scf accuracy    <          7.8E-10 Ry

     iteration # 14     ecut=    70.00 Ry     beta= 0.70
     Davidson diagonalization with overlap
     ethr =  2.22E-13,  avg # of iterations =  6.5

     total cpu time spent up to now is      216.3 secs

     total energy              =   -2256.30721621 Ry
     estimated scf accuracy    <          1.6E-10 Ry

     iteration # 15     ecut=    70.00 Ry     beta= 0.70
     Davidson diagonalization with overlap
     ethr =  1.00E-13,  avg # of iterations =  2.5

     total cpu time spent up to now is      228.0 secs

     End of self-consistent calculation

          k = 0.1250 0.1250 0.1250 (132670 PWs)   bands (ev):

   -18.5577 -18.5369 -18.4938 -18.4421 -18.3871 -18.3445 -18.2847 -18.2746
   -18.2737 -18.2672 -18.2617 -18.2315 -18.2240 -18.2212 -18.2205 -18.2180
   -18.2174 -18.2165 -18.2157 -18.2138 -18.2134 -18.2129 -18.2096 -18.2065
   -18.2062 -18.2020 -18.1999 -18.1998 -18.1963 -18.1939 -18.1932 -18.1924
   -18.1509 -18.1247 -18.1142 -18.0950 -18.0915 -18.0841 -18.0834 -18.0796
   -18.0687 -18.0603 -18.0544 -18.0366 -18.0317 -18.0173 -18.0086 -18.0043
    -9.4586  -9.3805  -9.2712  -9.2343  -9.1865  -9.1273  -9.0886  -9.0753
    -9.0017  -8.9759  -8.9379  -8.9166  -8.8972  -8.8828  -8.8596  -8.8192
    -8.7966  -8.7571  -8.7104  -8.6593  -8.6335  -8.5881  -8.5414  -8.5155
    -5.3161  -5.3110  -5.3090  -5.3037  -5.2906  -5.2819  -5.2643  -5.2600
    -5.2415  -5.2059  -5.1971  -5.1800  -5.1681  -5.1505  -5.1381  -5.1227
    -5.1151  -5.1065  -5.0125  -4.9968  -4.9920  -4.9488  -4.9463  -4.9358
    -4.4377  -3.9392  -3.9044  -3.8762  -3.3938  -3.3486  -3.3096  -2.7357
    -0.7904  -0.7058  -0.6631  -0.6295  -0.5750  -0.5543  -0.4811  -0.4444
    -0.4172  -0.3824  -0.3695  -0.1990   0.4307   0.4562   0.4915   0.6053
     0.6288   0.6430   0.7071   0.7671   0.7795   0.8776   0.8870   0.9508
     0.9891   1.0245   1.0443   1.0795   1.1099   1.1384   1.1777   1.1831
     1.2153   1.2485   1.2675   1.3060   1.3240   1.3560   1.3767   1.3863
     1.4040   1.4139   1.4597   1.4714   1.5017   1.5280   1.5415   1.5661
     1.5827   1.6058   1.6261   1.6344   1.6493   1.6829   1.7000   1.7211
     1.7501   1.8266   1.8601   1.9772   2.0485   2.0691   2.0991   2.1258
     2.1653   2.2088   2.2489   2.3239   2.6943   2.7450   2.8401   3.2058

          k = 0.1250 0.1250 0.3750 (132608 PWs)   bands (ev):

   -18.5577 -18.5369 -18.4938 -18.4421 -18.3871 -18.3445 -18.2847 -18.2746
   -18.2737 -18.2672 -18.2617 -18.2315 -18.2240 -18.2210 -18.2207 -18.2180
   -18.2174 -18.2165 -18.2157 -18.2138 -18.2134 -18.2129 -18.2096 -18.2065
   -18.2062 -18.2020 -18.1999 -18.1998 -18.1963 -18.1939 -18.1932 -18.1924
   -18.1509 -18.1247 -18.1142 -18.0950 -18.0915 -18.0841 -18.0834 -18.0796
   -18.0687 -18.0603 -18.0544 -18.0366 -18.0317 -18.0173 -18.0086 -18.0043
    -9.4410  -9.3838  -9.2868  -9.2153  -9.1985  -9.1481  -9.1131  -9.0726
    -8.9991  -8.9764  -8.9267  -8.9137  -8.8843  -8.8687  -8.8571  -8.8220
    -8.7945  -8.7579  -8.6955  -8.6654  -8.6455  -8.5796  -8.5467  -8.5228
    -5.3153  -5.3103  -5.3084  -5.3048  -5.2907  -5.2820  -5.2645  -5.2600
    -5.2414  -5.2058  -5.1971  -5.1800  -5.1681  -5.1505  -5.1382  -5.1228
    -5.1151  -5.1064  -5.0127  -4.9971  -4.9921  -4.9489  -4.9465  -4.9356
    -4.3106  -4.0904  -3.7874  -3.7615  -3.5550  -3.5276  -3.2031  -2.9544
    -0.7627  -0.6622  -0.6077  -0.5760  -0.5294  -0.4586  -0.4300  -0.3299
    -0.1757  -0.1188  -0.0347   0.0431   0.3616   0.4589   0.4750   0.5146
     0.5268   0.5883   0.6227   0.6539   0.6630   0.7066   0.7347   0.7793
     0.8332   0.8900   1.0075   1.0422   1.0519   1.1063   1.1429   1.1820
     1.2236   1.2391   1.2718   1.2981   1.3206   1.3369   1.3527   1.3822
     1.3976   1.4308   1.4625   1.4749   1.5379   1.5494   1.5591   1.6102
     1.6275   1.6421   1.6533   1.6720   1.6852   1.7129   1.7227   1.7362
     1.7897   1.8271   1.8759   1.9222   1.9552   1.9777   2.0150   2.0489
     2.1121   2.1544   2.2868   2.3496   2.4362   2.5273   2.8488   2.9473

          k = 0.1250 0.3750 0.3750 (132616 PWs)   bands (ev):

   -18.5577 -18.5369 -18.4938 -18.4421 -18.3871 -18.3445 -18.2847 -18.2746
   -18.2737 -18.2672 -18.2617 -18.2315 -18.2240 -18.2210 -18.2207 -18.2179
   -18.2174 -18.2165 -18.2157 -18.2137 -18.2134 -18.2131 -18.2096 -18.2065
   -18.2062 -18.2020 -18.1999 -18.1998 -18.1963 -18.1939 -18.1932 -18.1924
   -18.1509 -18.1247 -18.1142 -18.0950 -18.0915 -18.0841 -18.0834 -18.0796
   -18.0687 -18.0603 -18.0544 -18.0366 -18.0317 -18.0173 -18.0086 -18.0043
    -9.4172  -9.3830  -9.3202  -9.2129  -9.1924  -9.1562  -9.1264  -9.0718
    -8.9978  -8.9662  -8.9269  -8.9130  -8.8805  -8.8771  -8.8561  -8.8260
    -8.7750  -8.7438  -8.7027  -8.6651  -8.6438  -8.5819  -8.5565  -8.5225
    -5.3153  -5.3102  -5.3085  -5.3048  -5.2905  -5.2819  -5.2645  -5.2599
    -5.2414  -5.2060  -5.1970  -5.1798  -5.1684  -5.1501  -5.1384  -5.1229
    -5.1153  -5.1065  -5.0127  -4.9971  -4.9920  -4.9490  -4.9463  -4.9358
    -4.1809  -4.0063  -3.9178  -3.7411  -3.6200  -3.4577  -3.3442  -3.1508
    -0.6722  -0.5767  -0.5643  -0.5089  -0.3636  -0.2969  -0.2241  -0.1475
    -0.0717  -0.0231   0.0207   0.1752   0.2979   0.3796   0.4459   0.4690
     0.5116   0.5452   0.5940   0.6092   0.6521   0.6613   0.6840   0.7318
     0.7883   0.8618   0.8821   0.9571   0.9953   1.0142   1.0610   1.1363
     1.1478   1.1645   1.1954   1.2450   1.2542   1.2923   1.3407   1.3748
     1.4051   1.4270   1.5111   1.5280   1.5376   1.5793   1.5976   1.6314
     1.6525   1.6623   1.6870   1.6966   1.7197   1.7368   1.7514   1.7680
     1.8257   1.8560   1.8747   1.9162   1.9418   1.9636   1.9883   2.0038
     2.0521   2.0842   2.1204   2.1714   2.3459   2.4391   2.5722   2.6747

          k = 0.3750 0.3750 0.3750 (132612 PWs)   bands (ev):

   -18.5577 -18.5369 -18.4938 -18.4421 -18.3871 -18.3445 -18.2847 -18.2746
   -18.2737 -18.2672 -18.2617 -18.2315 -18.2240 -18.2210 -18.2207 -18.2179
   -18.2174 -18.2165 -18.2158 -18.2137 -18.2134 -18.2131 -18.2096 -18.2065
   -18.2062 -18.2020 -18.1999 -18.1998 -18.1963 -18.1939 -18.1932 -18.1924
   -18.1509 -18.1247 -18.1142 -18.0950 -18.0915 -18.0841 -18.0834 -18.0796
   -18.0687 -18.0603 -18.0544 -18.0366 -18.0317 -18.0173 -18.0086 -18.0043
    -9.4093  -9.3766  -9.3001  -9.2499  -9.1889  -9.1656  -9.1382  -9.0906
    -8.9917  -8.9563  -8.9198  -8.9065  -8.8833  -8.8699  -8.8472  -8.8194
    -8.7842  -8.7398  -8.7020  -8.6585  -8.6446  -8.5831  -8.5616  -8.5276
    -5.3157  -5.3103  -5.3087  -5.3042  -5.2904  -5.2817  -5.2647  -5.2601
    -5.2416  -5.2058  -5.1969  -5.1798  -5.1685  -5.1503  -5.1385  -5.1224
    -5.1153  -5.1065  -5.0131  -4.9967  -4.9917  -4.9488  -4.9463  -4.9356
    -4.0678  -3.8957  -3.8145  -3.7830  -3.6343  -3.6047  -3.5131  -3.3320
    -0.4479  -0.3916  -0.3053  -0.2830  -0.2330  -0.2116  -0.1768  -0.0900
    -0.0571  -0.0195   0.0732   0.1798   0.2883   0.3325   0.3590   0.4248
     0.4655   0.5102   0.5232   0.5618   0.5830   0.6373   0.6603   0.6888
     0.8325   0.8784   0.9036   0.9294   0.9631   0.9977   1.0355   1.0601
     1.0809   1.1044   1.1239   1.1830   1.1887   1.2179   1.2377   1.2948
     1.3707   1.4243   1.4651   1.5427   1.5720   1.6064   1.6323   1.6620
     1.6896   1.7019   1.7216   1.7417   1.7520   1.7664   1.7855   1.7998
     1.8171   1.8567   1.8787   1.9213   1.9315   1.9603   1.9886   2.0040
     2.0298   2.0691   2.0861   2.1066   2.1488   2.1828   2.2526   2.2923

          k =-0.1250-0.1250 0.1250 (132670 PWs)   bands (ev):

   -18.5577 -18.5369 -18.4938 -18.4421 -18.3871 -18.3445 -18.2847 -18.2746
   -18.2737 -18.2672 -18.2617 -18.2315 -18.2240 -18.2212 -18.2205 -18.2180
   -18.2174 -18.2165 -18.2157 -18.2138 -18.2134 -18.2129 -18.2096 -18.2065
   -18.2062 -18.2020 -18.1999 -18.1998 -18.1963 -18.1939 -18.1932 -18.1924
   -18.1509 -18.1247 -18.1142 -18.0950 -18.0915 -18.0841 -18.0834 -18.0796
   -18.0687 -18.0603 -18.0544 -18.0366 -18.0317 -18.0173 -18.0086 -18.0043
    -9.4585  -9.3805  -9.2705  -9.2355  -9.1875  -9.1229  -9.0971  -9.0680
    -9.0010  -8.9789  -8.9392  -8.9138  -8.8963  -8.8867  -8.8569  -8.8195
    -8.7974  -8.7565  -8.7110  -8.6590  -8.6343  -8.5869  -8.5413  -8.5159
    -5.3155  -5.3111  -5.3093  -5.3042  -5.2905  -5.2816  -5.2644  -5.2599
    -5.2415  -5.2059  -5.1972  -5.1798  -5.1680  -5.1504  -5.1382  -5.1228
    -5.1151  -5.1065  -5.0124  -4.9969  -4.9920  -4.9488  -4.9463  -4.9359
    -4.4376  -3.9320  -3.9078  -3.8822  -3.3853  -3.3394  -3.3247  -2.7366
    -0.7854  -0.7085  -0.6769  -0.6155  -0.5744  -0.5302  -0.4886  -0.4640
    -0.4055  -0.3895  -0.3714  -0.2056   0.4364   0.4589   0.4877   0.5861
     0.6336   0.6538   0.7138   0.7645   0.7796   0.8784   0.8839   0.9557
     0.9775   1.0256   1.0571   1.0874   1.1197   1.1346   1.1481   1.1946
     1.2030   1.2517   1.2730   1.2949   1.3335   1.3518   1.3796   1.3858
     1.4147   1.4177   1.4502   1.4751   1.4982   1.5243   1.5489   1.5620
     1.5722   1.5962   1.6212   1.6416   1.6612   1.6823   1.7014   1.7393
     1.7617   1.8239   1.8651   1.9641   2.0360   2.0634   2.1070   2.1334
     2.1603   2.2009   2.2431   2.3219   2.7055   2.7348   2.8440   3.2191

          k =-0.1250 0.1250-0.1250 (132670 PWs)   bands (ev):

   -18.5577 -18.5369 -18.4938 -18.4421 -18.3871 -18.3445 -18.2847 -18.2746
   -18.2737 -18.2672 -18.2617 -18.2315 -18.2240 -18.2212 -18.2205 -18.2180
   -18.2174 -18.2165 -18.2157 -18.2138 -18.2134 -18.2129 -18.2096 -18.2065
   -18.2062 -18.2020 -18.1999 -18.1998 -18.1963 -18.1939 -18.1932 -18.1924
   -18.1509 -18.1247 -18.1142 -18.0950 -18.0915 -18.0841 -18.0834 -18.0796
   -18.0687 -18.0603 -18.0544 -18.0366 -18.0317 -18.0173 -18.0086 -18.0043
    -9.4581  -9.3812  -9.2745  -9.2289  -9.1866  -9.1306  -9.0947  -9.0647
    -8.9973  -8.9839  -8.9390  -8.9148  -8.8964  -8.8871  -8.8564  -8.8195
    -8.7920  -8.7621  -8.7111  -8.6566  -8.6345  -8.5877  -8.5415  -8.5157
    -5.3161  -5.3109  -5.3091  -5.3037  -5.2904  -5.2820  -5.2644  -5.2600
    -5.2414  -5.2059  -5.1971  -5.1799  -5.1682  -5.1503  -5.1381  -5.1230
    -5.1151  -5.1064  -5.0124  -4.9968  -4.9921  -4.9488  -4.9463  -4.9359
    -4.4378  -3.9323  -3.9104  -3.8785  -3.3895  -3.3396  -3.3207  -2.7372
    -0.7587  -0.7092  -0.6805  -0.6490  -0.5711  -0.5328  -0.5000  -0.4334
    -0.4282  -0.3896  -0.3477  -0.2172   0.4312   0.4568   0.4878   0.6003
     0.6255   0.6415   0.7153   0.7689   0.7770   0.8766   0.9236   0.9482
     0.9810   1.0280   1.0430   1.0672   1.1220   1.1383   1.1758   1.1958
     1.2225   1.2526   1.2701   1.2936   1.3121   1.3420   1.3478   1.3840
     1.4052   1.4240   1.4439   1.4762   1.5131   1.5246   1.5409   1.5623
     1.5812   1.6027   1.6246   1.6510   1.6574   1.6830   1.7200   1.7427
     1.7484   1.8123   1.8636   1.9708   2.0492   2.0714   2.0913   2.1323
     2.1671   2.1983   2.2424   2.3138   2.6997   2.7305   2.8556   3.2069

          k = 0.1250-0.1250-0.1250 (132670 PWs)   bands (ev):

   -18.5577 -18.5369 -18.4938 -18.4421 -18.3871 -18.3445 -18.2847 -18.2746
   -18.2737 -18.2672 -18.2617 -18.2315 -18.2240 -18.2212 -18.2205 -18.2180
   -18.2174 -18.2165 -18.2157 -18.2138 -18.2134 -18.2129 -18.2096 -18.2065
   -18.2062 -18.2020 -18.1999 -18.1998 -18.1963 -18.1939 -18.1932 -18.1924
   -18.1509 -18.1247 -18.1142 -18.0950 -18.0915 -18.0841 -18.0834 -18.0796
   -18.0687 -18.0603 -18.0544 -18.0366 -18.0317 -18.0173 -18.0086 -18.0043
    -9.4583  -9.3803  -9.2750  -9.2296  -9.1883  -9.1307  -9.0864  -9.0700
    -8.9990  -8.9839  -8.9382  -8.9152  -8.8978  -8.8825  -8.8580  -8.8223
    -8.7912  -8.7603  -8.7126  -8.6571  -8.6334  -8.5875  -8.5416  -8.5159
    -5.3155  -5.3112  -5.3093  -5.3042  -5.2904  -5.2817  -5.2644  -5.2599
    -5.2415  -5.2059  -5.1970  -5.1799  -5.1681  -5.1503  -5.1381  -5.1230
    -5.1150  -5.1065  -5.0124  -4.9969  -4.9920  -4.9488  -4.9463  -4.9359
    -4.4373  -3.9393  -3.9061  -3.8762  -3.3886  -3.3560  -3.3051  -2.7366
    -0.7822  -0.7104  -0.6751  -0.6188  -0.5888  -0.5356  -0.4989  -0.4591
    -0.4097  -0.3762  -0.3474  -0.2099   0.4330   0.4621   0.4864   0.5913
     0.6313   0.6502   0.7172   0.7625   0.7847   0.8694   0.8915   0.9301
     0.9885   1.0200   1.0548   1.0896   1.1208   1.1523   1.1774   1.1991
     1.2208   1.2385   1.2583   1.2789   1.3157   1.3346   1.3781   1.3858
     1.4084   1.4226   1.4495   1.4756   1.4997   1.5284   1.5400   1.5588
     1.5847   1.6088   1.6331   1.6579   1.6665   1.6781   1.7000   1.7296
     1.7460   1.8189   1.8630   1.9754   2.0500   2.0687   2.0918   2.1234
     2.1458   2.2099   2.2502   2.3200   2.7100   2.7297   2.8572   3.2172

          k =-0.1250-0.1250 0.3750 (132608 PWs)   bands (ev):

   -18.5577 -18.5369 -18.4938 -18.4421 -18.3871 -18.3445 -18.2847 -18.2746
   -18.2737 -18.2672 -18.2617 -18.2315 -18.2240 -18.2210 -18.2207 -18.2180
   -18.2174 -18.2165 -18.2157 -18.2138 -18.2134 -18.2129 -18.2096 -18.2065
   -18.2062 -18.2020 -18.1999 -18.1998 -18.1963 -18.1939 -18.1932 -18.1924
   -18.1509 -18.1247 -18.1142 -18.0950 -18.0915 -18.0841 -18.0834 -18.0796
   -18.0687 -18.0603 -18.0544 -18.0366 -18.0317 -18.0173 -18.0086 -18.0043
    -9.4409  -9.3839  -9.2864  -9.2192  -9.1949  -9.1478  -9.1152  -9.0697
    -8.9983  -8.9782  -8.9280  -8.9124  -8.8847  -8.8706  -8.8544  -8.8221
    -8.7954  -8.7574  -8.6960  -8.6650  -8.6462  -8.5782  -8.5470  -8.5232
    -5.3146  -5.3100  -5.3090  -5.3055  -5.2906  -5.2817  -5.2646  -5.2599
    -5.2415  -5.2059  -5.1972  -5.1799  -5.1681  -5.1505  -5.1383  -5.1229
    -5.1150  -5.1064  -5.0126  -4.9971  -4.9921  -4.9489  -4.9465  -4.9357
    -4.3104  -4.0898  -3.7878  -3.7659  -3.5527  -3.5235  -3.2046  -2.9556
    -0.7592  -0.6581  -0.6195  -0.5720  -0.5217  -0.4531  -0.4414  -0.3316
    -0.1518  -0.1210  -0.0538   0.0261   0.3809   0.4406   0.4975   0.5090
     0.5442   0.5682   0.6179   0.6480   0.6667   0.7005   0.7346   0.7983
     0.8404   0.8747   1.0176   1.0385   1.0571   1.1133   1.1336   1.1705
     1.2066   1.2308   1.2722   1.3078   1.3212   1.3519   1.3730   1.3784
     1.4047   1.4233   1.4493   1.4737   1.5312   1.5608   1.5742   1.6020
     1.6163   1.6322   1.6523   1.6596   1.6932   1.7165   1.7461   1.7634
     1.7895   1.8281   1.8715   1.9047   1.9374   1.9741   2.0168   2.0556
     2.1070   2.1505   2.2804   2.3452   2.4535   2.5243   2.8358   2.9657

          k =-0.1250 0.1250-0.3750 (132608 PWs)   bands (ev):

   -18.5577 -18.5369 -18.4938 -18.4421 -18.3871 -18.3445 -18.2847 -18.2746
   -18.2737 -18.2672 -18.2617 -18.2315 -18.2240 -18.2210 -18.2207 -18.2180
   -18.2174 -18.2165 -18.2157 -18.2138 -18.2134 -18.2129 -18.2096 -18.2065
   -18.2062 -18.2020 -18.1999 -18.1998 -18.1963 -18.1939 -18.1932 -18.1924
   -18.1509 -18.1247 -18.1142 -18.0950 -18.0915 -18.0841 -18.0834 -18.0796
   -18.0687 -18.0603 -18.0544 -18.0366 -18.0317 -18.0173 -18.0086 -18.0043
    -9.4403  -9.3845  -9.2886  -9.2176  -9.1903  -9.1508  -9.1183  -9.0668
    -8.9934  -8.9849  -8.9277  -8.9123  -8.8848  -8.8717  -8.8536  -8.8214
    -8.7927  -8.7602  -8.6968  -8.6648  -8.6446  -8.5791  -8.5470  -8.5230
    -5.3153  -5.3101  -5.3085  -5.3048  -5.2906  -5.2820  -5.2646  -5.2600
    -5.2414  -5.2059  -5.1972  -5.1799  -5.1683  -5.1503  -5.1381  -5.1231
    -5.1150  -5.1063  -5.0126  -4.9970  -4.9922  -4.9490  -4.9464  -4.9357
    -4.3110  -4.0881  -3.7964  -3.7587  -3.5578  -3.5166  -3.2063  -2.9556
    -0.7339  -0.6735  -0.6388  -0.5718  -0.5137  -0.4606  -0.4233  -0.3367
    -0.1669  -0.1262  -0.0361   0.0245   0.3772   0.4386   0.4729   0.5130
     0.5498   0.5655   0.6106   0.6574   0.6817   0.7150   0.7521   0.7790
     0.8371   0.8817   0.9953   1.0294   1.0643   1.1397   1.1501   1.1866
     1.2081   1.2423   1.2724   1.2890   1.3057   1.3332   1.3586   1.3655
     1.3882   1.4241   1.4584   1.4758   1.5409   1.5624   1.5734   1.6039
     1.6158   1.6394   1.6570   1.6738   1.6956   1.7083   1.7456   1.7695
     1.7893   1.8066   1.8623   1.9288   1.9432   1.9780   2.0177   2.0506
     2.1125   2.1482   2.2855   2.3378   2.4399   2.5171   2.8502   2.9591

          k = 0.1250-0.1250-0.3750 (132608 PWs)   bands (ev):

   -18.5577 -18.5369 -18.4938 -18.4421 -18.3871 -18.3445 -18.2847 -18.2746
   -18.2737 -18.2672 -18.2617 -18.2315 -18.2240 -18.2210 -18.2207 -18.2180
   -18.2174 -18.2165 -18.2157 -18.2138 -18.2134 -18.2129 -18.2096 -18.2065
   -18.2062 -18.2020 -18.1999 -18.1998 -18.1963 -18.1939 -18.1932 -18.1924
   -18.1509 -18.1247 -18.1142 -18.0950 -18.0915 -18.0841 -18.0834 -18.0796
   -18.0687 -18.0603 -18.0544 -18.0366 -18.0317 -18.0173 -18.0086 -18.0043
    -9.4408  -9.3830  -9.2900  -9.2103  -9.2032  -9.1421  -9.1191  -9.0684
    -8.9951  -8.9840  -8.9265  -8.9128  -8.8857  -8.8667  -8.8559  -8.8251
    -8.7919  -8.7584  -8.6980  -8.6658  -8.6431  -8.5786  -8.5472  -8.5233
    -5.3146  -5.3102  -5.3089  -5.3055  -5.2905  -5.2818  -5.2646  -5.2599
    -5.2415  -5.2059  -5.1971  -5.1800  -5.1682  -5.1503  -5.1382  -5.1231
    -5.1149  -5.1064  -5.0126  -4.9972  -4.9921  -4.9489  -4.9464  -4.9357
    -4.3095  -4.0913  -3.7892  -3.7645  -3.5452  -3.5317  -3.2032  -2.9554
    -0.7433  -0.6730  -0.6379  -0.5568  -0.5321  -0.4676  -0.4337  -0.3175
    -0.1539  -0.1133  -0.0535   0.0378   0.3650   0.4730   0.4767   0.5191
     0.5400   0.5711   0.6054   0.6435   0.6742   0.6864   0.7528   0.7794
     0.8296   0.8770   1.0016   1.0350   1.0635   1.1417   1.1602   1.1817
     1.2235   1.2403   1.2627   1.2894   1.3110   1.3307   1.3514   1.3739
     1.3971   1.4284   1.4547   1.4764   1.5297   1.5617   1.5718   1.6018
     1.6221   1.6472   1.6606   1.6818   1.6903   1.7076   1.7228   1.7486
     1.7824   1.8331   1.8833   1.9080   1.9409   1.9807   2.0174   2.0508
     2.0967   2.1570   2.2848   2.3489   2.4552   2.5058   2.8552   2.9624

          k = 0.3750-0.1250 0.1250 (132608 PWs)   bands (ev):

   -18.5577 -18.5369 -18.4938 -18.4421 -18.3871 -18.3445 -18.2847 -18.2746
   -18.2737 -18.2672 -18.2617 -18.2315 -18.2240 -18.2212 -18.2205 -18.2180
   -18.2174 -18.2165 -18.2158 -18.2138 -18.2134 -18.2129 -18.2096 -18.2065
   -18.2062 -18.2020 -18.1999 -18.1998 -18.1963 -18.1939 -18.1932 -18.1924
   -18.1509 -18.1247 -18.1142 -18.0950 -18.0915 -18.0841 -18.0834 -18.0796
   -18.0687 -18.0603 -18.0544 -18.0366 -18.0317 -18.0173 -18.0086 -18.0043
    -9.4435  -9.3813  -9.2876  -9.2224  -9.1831  -9.1601  -9.0992  -9.0740
    -9.0029  -8.9684  -8.9367  -8.9119  -8.8955  -8.8803  -8.8480  -8.8144
    -8.7929  -8.7647  -8.6992  -8.6575  -8.6314  -8.5882  -8.5496  -8.5223
    -5.3153  -5.3103  -5.3085  -5.3048  -5.2905  -5.2823  -5.2644  -5.2599
    -5.2415  -5.2060  -5.1972  -5.1799  -5.1682  -5.1501  -5.1380  -5.1234
    -5.1153  -5.1063  -5.0131  -4.9967  -4.9919  -4.9488  -4.9463  -4.9358
    -4.3177  -4.0573  -3.8231  -3.7705  -3.5332  -3.5058  -3.2397  -2.9498
    -0.7244  -0.6731  -0.6277  -0.5651  -0.5525  -0.4751  -0.4471  -0.3397
    -0.1724  -0.0879  -0.0433   0.0309   0.3762   0.4559   0.4840   0.5114
     0.5490   0.5948   0.6364   0.6687   0.7074   0.7271   0.7648   0.8234
     0.9095   0.9475   0.9817   1.0044   1.0261   1.0645   1.0959   1.1412
     1.1983   1.2292   1.2757   1.2897   1.3087   1.3380   1.3546   1.3788
     1.3925   1.4222   1.4634   1.5063   1.5356   1.5454   1.5633   1.5895
     1.6082   1.6329   1.6517   1.6595   1.6931   1.7149   1.7361   1.7692
     1.7789   1.8619   1.8876   1.9054   1.9310   1.9505   2.0498   2.0720
     2.1198   2.1290   2.2323   2.3106   2.4403   2.5111   2.8063   2.9091

          k =-0.3750-0.1250-0.1250 (132608 PWs)   bands (ev):

   -18.5577 -18.5369 -18.4938 -18.4421 -18.3871 -18.3445 -18.2847 -18.2746
   -18.2737 -18.2672 -18.2617 -18.2315 -18.2240 -18.2212 -18.2205 -18.2180
   -18.2174 -18.2165 -18.2158 -18.2138 -18.2134 -18.2129 -18.2096 -18.2065
   -18.2062 -18.2020 -18.1999 -18.1998 -18.1963 -18.1939 -18.1932 -18.1924
   -18.1509 -18.1247 -18.1142 -18.0950 -18.0915 -18.0841 -18.0834 -18.0796
   -18.0687 -18.0603 -18.0544 -18.0366 -18.0317 -18.0173 -18.0086 -18.0043
    -9.4442  -9.3806  -9.2834  -9.2314  -9.1818  -9.1554  -9.0940  -9.0820
    -9.0063  -8.9628  -8.9351  -8.9135  -8.8964  -8.8771  -8.8512  -8.8137
    -8.7977  -8.7591  -8.6989  -8.6591  -8.6316  -8.5882  -8.5495  -8.5221
    -5.3153  -5.3104  -5.3085  -5.3047  -5.2906  -5.2822  -5.2643  -5.2599
    -5.2415  -5.2059  -5.1971  -5.1800  -5.1680  -5.1503  -5.1381  -5.1230
    -5.1154  -5.1064  -5.0132  -4.9967  -4.9918  -4.9487  -4.9464  -4.9358
    -4.3180  -4.0558  -3.8256  -3.7679  -3.5451  -3.4949  -3.2414  -2.9477
    -0.7471  -0.6537  -0.6341  -0.5920  -0.5239  -0.4767  -0.4336  -0.3425
    -0.1657  -0.0994  -0.0432   0.0416   0.3766   0.4621   0.4871   0.5065
     0.5542   0.5914   0.6315   0.6673   0.7105   0.7232   0.7531   0.8179
     0.9009   0.9426   0.9966   1.0155   1.0249   1.0623   1.1101   1.1527
     1.1657   1.2164   1.2748   1.3020   1.3143   1.3352   1.3545   1.3724
     1.4037   1.4465   1.4598   1.4944   1.5340   1.5535   1.5746   1.5914
     1.5986   1.6330   1.6459   1.6657   1.6767   1.7050   1.7386   1.7578
     1.7689   1.8499   1.8904   1.9051   1.9315   1.9601   2.0551   2.0926
     2.1180   2.1280   2.2456   2.3106   2.4437   2.5063   2.7998   2.9100

          k = 0.3750 0.1250-0.1250 (132608 PWs)   bands (ev):

   -18.5577 -18.5369 -18.4938 -18.4421 -18.3871 -18.3445 -18.2847 -18.2746
   -18.2737 -18.2672 -18.2617 -18.2315 -18.2240 -18.2212 -18.2205 -18.2180
   -18.2174 -18.2165 -18.2158 -18.2138 -18.2134 -18.2129 -18.2096 -18.2065
   -18.2062 -18.2020 -18.1999 -18.1998 -18.1963 -18.1939 -18.1932 -18.1924
   -18.1509 -18.1247 -18.1142 -18.0950 -18.0915 -18.0841 -18.0834 -18.0796
   -18.0687 -18.0603 -18.0544 -18.0366 -18.0317 -18.0173 -18.0086 -18.0043
    -9.4441  -9.3804  -9.2846  -9.2307  -9.1831  -9.1508  -9.1049  -9.0730
    -9.0056  -8.9640  -8.9386  -8.9104  -8.8957  -8.8792  -8.8490  -8.8127
    -8.8002  -8.7591  -8.6985  -8.6595  -8.6319  -8.5872  -8.5493  -8.5226
    -5.3146  -5.3103  -5.3090  -5.3054  -5.2905  -5.2819  -5.2644  -5.2599
    -5.2415  -5.2059  -5.1972  -5.1798  -5.1680  -5.1502  -5.1382  -5.1231
    -5.1153  -5.1065  -5.0131  -4.9968  -4.9918  -4.9487  -4.9464  -4.9358
    -4.3174  -4.0574  -3.8229  -3.7724  -3.5299  -3.5065  -3.2417  -2.9487
    -0.7339  -0.6824  -0.6177  -0.5728  -0.5260  -0.4903  -0.4401  -0.3489
    -0.1504  -0.0925  -0.0583   0.0416   0.3923   0.4581   0.4817   0.5037
     0.5452   0.5857   0.6460   0.6521   0.7130   0.7299   0.7475   0.8106
     0.9197   0.9402   0.9949   1.0243   1.0370   1.0555   1.0964   1.1365
     1.1883   1.2222   1.2616   1.2727   1.3022   1.3527   1.3734   1.3951
     1.4098   1.4426   1.4721   1.4918   1.5234   1.5383   1.5684   1.5822
     1.5998   1.6200   1.6488   1.6675   1.6971   1.7095   1.7436   1.7695
     1.7864   1.8506   1.8757   1.9088   1.9188   1.9536   2.0553   2.0903
     2.1055   2.1324   2.2391   2.3097   2.4559   2.4954   2.7933   2.9278

          k =-0.3750 0.1250 0.1250 (132608 PWs)   bands (ev):

   -18.5577 -18.5369 -18.4938 -18.4421 -18.3871 -18.3445 -18.2847 -18.2746
   -18.2737 -18.2672 -18.2617 -18.2315 -18.2240 -18.2212 -18.2205 -18.2180
   -18.2174 -18.2165 -18.2158 -18.2138 -18.2134 -18.2129 -18.2096 -18.2065
   -18.2062 -18.2020 -18.1999 -18.1998 -18.1963 -18.1939 -18.1932 -18.1924
   -18.1509 -18.1247 -18.1142 -18.0950 -18.0915 -18.0841 -18.0834 -18.0796
   -18.0687 -18.0603 -18.0544 -18.0366 -18.0317 -18.0173 -18.0086 -18.0043
    -9.4439  -9.3803  -9.2872  -9.2244  -9.1871  -9.1570  -9.0880  -9.0824
    -9.0053  -8.9666  -8.9371  -8.9119  -8.8959  -8.8777  -8.8495  -8.8176
    -8.7911  -8.7630  -8.7007  -8.6578  -8.6306  -8.5876  -8.5498  -8.5225
    -5.3145  -5.3104  -5.3090  -5.3054  -5.2904  -5.2820  -5.2644  -5.2599
    -5.2416  -5.2060  -5.1971  -5.1799  -5.1681  -5.1500  -5.1380  -5.1233
    -5.1152  -5.1065  -5.0131  -4.9968  -4.9918  -4.9487  -4.9463  -4.9358
    -4.3168  -4.0580  -3.8283  -3.7639  -3.5480  -3.4938  -3.2381  -2.9497
    -0.7416  -0.6630  -0.6298  -0.5839  -0.5391  -0.4743  -0.4432  -0.3329
    -0.1592  -0.0877  -0.0479   0.0315   0.3927   0.4512   0.4826   0.5054
     0.5415   0.5996   0.6463   0.6545   0.7012   0.7314   0.7516   0.8207
     0.9130   0.9507   0.9739   1.0057   1.0389   1.0789   1.1186   1.1366
     1.1695   1.2276   1.2551   1.2774   1.3276   1.3428   1.3559   1.3748
     1.3966   1.4332   1.4699   1.4792   1.5329   1.5454   1.5742   1.5973
     1.6149   1.6269   1.6571   1.6762   1.6846   1.6968   1.7376   1.7652
     1.7873   1.8507   1.8817   1.9152   1.9243   1.9495   2.0451   2.0850
     2.1011   2.1353   2.2344   2.3140   2.4460   2.5234   2.7896   2.9282

          k =-0.1250 0.3750 0.1250 (132608 PWs)   bands (ev):

   -18.5577 -18.5369 -18.4938 -18.4421 -18.3871 -18.3445 -18.2847 -18.2746
   -18.2737 -18.2672 -18.2617 -18.2315 -18.2240 -18.2212 -18.2205 -18.2179
   -18.2174 -18.2165 -18.2157 -18.2137 -18.2134 -18.2131 -18.2096 -18.2065
   -18.2062 -18.2020 -18.1999 -18.1998 -18.1963 -18.1939 -18.1932 -18.1924
   -18.1509 -18.1247 -18.1142 -18.0950 -18.0915 -18.0841 -18.0834 -18.0796
   -18.0687 -18.0603 -18.0544 -18.0366 -18.0317 -18.0173 -18.0086 -18.0043
    -9.4311  -9.3951  -9.2981  -9.2184  -9.1910  -9.1409  -9.1115  -9.0512
    -8.9981  -8.9735  -8.9363  -8.9168  -8.8955  -8.8794  -8.8717  -8.8265
    -8.7747  -8.7439  -8.7055  -8.6606  -8.6379  -8.5909  -8.5505  -8.5160
    -5.3154  -5.3110  -5.3092  -5.3042  -5.2902  -5.2816  -5.2643  -5.2598
    -5.2414  -5.2061  -5.1971  -5.1799  -5.1682  -5.1497  -5.1382  -5.1233
    -5.1153  -5.1067  -5.0124  -4.9971  -4.9920  -4.9489  -4.9461  -4.9361
    -4.3055  -4.0938  -3.7943  -3.7542  -3.5650  -3.5213  -3.2017  -2.9509
    -0.7436  -0.6490  -0.6122  -0.5674  -0.5503  -0.5167  -0.4588  -0.4407
    -0.1777  -0.0638   0.0133   0.1148   0.3893   0.4183   0.4786   0.5180
     0.5599   0.5750   0.6316   0.6620   0.6871   0.7252   0.7665   0.8004
     0.8626   0.8990   0.9266   1.0148   1.0746   1.0883   1.1539   1.1955
     1.2084   1.2559   1.2753   1.3006   1.3174   1.3332   1.3651   1.3998
     1.4185   1.4368   1.4807   1.5046   1.5265   1.5335   1.5614   1.5747
     1.5945   1.6219   1.6429   1.6599   1.6909   1.6992   1.7523   1.7683
     1.8113   1.8410   1.8608   1.9162   1.9411   1.9679   2.0231   2.0496
     2.0756   2.1717   2.2225   2.2949   2.4229   2.5666   2.7309   2.9995

          k =-0.1250-0.3750-0.1250 (132608 PWs)   bands (ev):

   -18.5577 -18.5369 -18.4938 -18.4421 -18.3871 -18.3445 -18.2847 -18.2746
   -18.2737 -18.2672 -18.2617 -18.2315 -18.2240 -18.2212 -18.2205 -18.2179
   -18.2174 -18.2165 -18.2157 -18.2137 -18.2134 -18.2131 -18.2096 -18.2065
   -18.2062 -18.2020 -18.1999 -18.1998 -18.1963 -18.1939 -18.1932 -18.1924
   -18.1509 -18.1247 -18.1142 -18.0950 -18.0915 -18.0841 -18.0834 -18.0796
   -18.0687 -18.0603 -18.0544 -18.0366 -18.0317 -18.0173 -18.0086 -18.0043
    -9.4320  -9.3943  -9.2974  -9.2226  -9.1841  -9.1388  -9.1178  -9.0535
    -9.0018  -8.9642  -8.9357  -8.9184  -8.8956  -8.8827  -8.8703  -8.8239
    -8.7816  -8.7353  -8.7088  -8.6582  -8.6412  -8.5911  -8.5501  -8.5156
    -5.3160  -5.3108  -5.3089  -5.3037  -5.2904  -5.2818  -5.2642  -5.2599
    -5.2414  -5.2060  -5.1971  -5.1800  -5.1682  -5.1500  -5.1382  -5.1230
    -5.1154  -5.1067  -5.0126  -4.9970  -4.9920  -4.9489  -4.9462  -4.9360
    -4.3064  -4.0933  -3.7935  -3.7502  -3.5691  -3.5214  -3.2038  -2.9488
    -0.7338  -0.6570  -0.6105  -0.5771  -0.5559  -0.5202  -0.4596  -0.4250
    -0.1643  -0.0682  -0.0034   0.1254   0.3931   0.4166   0.4700   0.5220
     0.5532   0.6008   0.6224   0.6492   0.6717   0.7216   0.7823   0.7951
     0.8690   0.8952   0.9292   1.0278   1.0579   1.0934   1.1436   1.1964
     1.2124   1.2560   1.2769   1.3030   1.3220   1.3544   1.3792   1.3963
     1.4296   1.4418   1.4734   1.4863   1.5091   1.5302   1.5553   1.5743
     1.6029   1.6124   1.6430   1.6588   1.6881   1.7089   1.7417   1.7672
     1.8044   1.8445   1.8554   1.9167   1.9543   1.9662   2.0255   2.0499
     2.0766   2.1774   2.2297   2.3025   2.4391   2.5615   2.6995   2.9955

          k = 0.1250 0.3750-0.1250 (132608 PWs)   bands (ev):

   -18.5577 -18.5369 -18.4938 -18.4421 -18.3871 -18.3445 -18.2847 -18.2746
   -18.2737 -18.2672 -18.2617 -18.2315 -18.2240 -18.2212 -18.2205 -18.2179
   -18.2174 -18.2165 -18.2157 -18.2137 -18.2134 -18.2131 -18.2096 -18.2065
   -18.2062 -18.2020 -18.1999 -18.1998 -18.1963 -18.1939 -18.1932 -18.1924
   -18.1509 -18.1247 -18.1142 -18.0950 -18.0915 -18.0841 -18.0834 -18.0796
   -18.0687 -18.0603 -18.0544 -18.0366 -18.0317 -18.0173 -18.0086 -18.0043
    -9.4316  -9.3951  -9.2958  -9.2235  -9.1883  -9.1316  -9.1215  -9.0515
    -8.9999  -8.9685  -8.9385  -8.9133  -8.8966  -8.8857  -8.8671  -8.8251
    -8.7812  -8.7358  -8.7082  -8.6574  -8.6431  -8.5897  -8.5502  -8.5160
    -5.3154  -5.3109  -5.3092  -5.3042  -5.2903  -5.2815  -5.2643  -5.2598
    -5.2414  -5.2060  -5.1972  -5.1798  -5.1682  -5.1499  -5.1383  -5.1230
    -5.1154  -5.1067  -5.0125  -4.9970  -4.9920  -4.9489  -4.9462  -4.9361
    -4.3067  -4.0908  -3.7980  -3.7545  -3.5662  -3.5146  -3.2062  -2.9500
    -0.7412  -0.6407  -0.6232  -0.5694  -0.5477  -0.5093  -0.4657  -0.4355
    -0.1674  -0.0634  -0.0150   0.1163   0.3881   0.4263   0.4702   0.5321
     0.5413   0.5988   0.6248   0.6621   0.6792   0.7247   0.7609   0.8202
     0.8546   0.8968   0.9344   1.0162   1.0717   1.0881   1.1523   1.1880
     1.2067   1.2307   1.2738   1.3033   1.3223   1.3677   1.3806   1.3994
     1.4260   1.4483   1.4699   1.4994   1.5267   1.5342   1.5521   1.5723
     1.5939   1.6134   1.6260   1.6551   1.6761   1.7322   1.7557   1.7836
     1.8052   1.8293   1.8789   1.9013   1.9243   1.9716   2.0356   2.0521
     2.0734   2.1819   2.2126   2.2888   2.4265   2.5665   2.7223   3.0032

          k = 0.1250-0.3750 0.1250 (132608 PWs)   bands (ev):

   -18.5577 -18.5369 -18.4938 -18.4421 -18.3871 -18.3445 -18.2847 -18.2746
   -18.2737 -18.2672 -18.2617 -18.2315 -18.2240 -18.2212 -18.2205 -18.2179
   -18.2174 -18.2165 -18.2157 -18.2137 -18.2134 -18.2131 -18.2096 -18.2065
   -18.2062 -18.2020 -18.1999 -18.1998 -18.1963 -18.1939 -18.1932 -18.1924
   -18.1509 -18.1247 -18.1142 -18.0950 -18.0915 -18.0841 -18.0834 -18.0796
   -18.0687 -18.0603 -18.0544 -18.0366 -18.0317 -18.0173 -18.0086 -18.0043
    -9.4306  -9.3960  -9.2988  -9.2156  -9.1903  -9.1372  -9.1201  -9.0497
    -8.9985  -8.9707  -8.9376  -8.9142  -8.8983  -8.8867  -8.8651  -8.8237
    -8.7776  -8.7440  -8.7042  -8.6596  -8.6396  -8.5909  -8.5504  -8.5158
    -5.3161  -5.3107  -5.3090  -5.3037  -5.2902  -5.2819  -5.2643  -5.2599
    -5.2413  -5.2061  -5.1972  -5.1798  -5.1684  -5.1497  -5.1381  -5.1233
    -5.1154  -5.1066  -5.0125  -4.9970  -4.9921  -4.9490  -4.9461  -4.9361
    -4.3066  -4.0925  -3.7965  -3.7503  -3.5686  -3.5181  -3.2036  -2.9511
    -0.7236  -0.6474  -0.6109  -0.5959  -0.5650  -0.4958  -0.4564  -0.4308
    -0.1891  -0.0601   0.0058   0.1020   0.3771   0.4327   0.4731   0.5291
     0.5547   0.5858   0.6226   0.6720   0.6807   0.7192   0.7660   0.8219
     0.8589   0.8888   0.9444   1.0202   1.0582   1.0887   1.1377   1.1997
     1.2409   1.2492   1.2759   1.3075   1.3216   1.3457   1.3652   1.3887
     1.4062   1.4328   1.4693   1.4919   1.5241   1.5394   1.5511   1.5794
     1.5965   1.6252   1.6350   1.6688   1.6864   1.7050   1.7609   1.7906
     1.8083   1.8307   1.8683   1.9100   1.9410   1.9597   2.0251   2.0513
     2.0602   2.1856   2.2277   2.2972   2.4168   2.5792   2.7048   2.9960

          k =-0.1250-0.3750 0.3750 (132616 PWs)   bands (ev):

   -18.5577 -18.5369 -18.4938 -18.4421 -18.3871 -18.3445 -18.2847 -18.2746
   -18.2737 -18.2672 -18.2617 -18.2315 -18.2240 -18.2210 -18.2207 -18.2179
   -18.2174 -18.2165 -18.2157 -18.2137 -18.2134 -18.2131 -18.2096 -18.2065
   -18.2062 -18.2020 -18.1999 -18.1999 -18.1963 -18.1939 -18.1932 -18.1924
   -18.1509 -18.1247 -18.1142 -18.0950 -18.0915 -18.0841 -18.0834 -18.0796
   -18.0687 -18.0603 -18.0544 -18.0366 -18.0317 -18.0173 -18.0086 -18.0043
    -9.4164  -9.3847  -9.3181  -9.2160  -9.1924  -9.1564  -9.1242  -9.0707
    -8.9964  -8.9689  -8.9289  -8.9108  -8.8822  -8.8755  -8.8550  -8.8278
    -8.7736  -8.7448  -8.7022  -8.6642  -8.6456  -8.5800  -8.5572  -8.5229
    -5.3146  -5.3100  -5.3090  -5.3055  -5.2904  -5.2816  -5.2646  -5.2599
    -5.2414  -5.2060  -5.1971  -5.1797  -5.1683  -5.1500  -5.1385  -5.1230
    -5.1152  -5.1066  -5.0126  -4.9972  -4.9920  -4.9490  -4.9463  -4.9358
    -4.1826  -3.9821  -3.9454  -3.7349  -3.6338  -3.3990  -3.3906  -3.1507
    -0.6758  -0.5806  -0.5538  -0.5075  -0.3646  -0.2699  -0.2111  -0.1737
    -0.0862  -0.0645   0.0488   0.1797   0.2905   0.3899   0.4140   0.4935
     0.5262   0.5598   0.5708   0.6087   0.6399   0.6707   0.6946   0.7380
     0.7900   0.8583   0.8902   0.9649   0.9808   1.0248   1.0540   1.0979
     1.1285   1.1709   1.2133   1.2428   1.2714   1.2975   1.3387   1.3769
     1.4042   1.4397   1.4978   1.5241   1.5448   1.5908   1.6060   1.6198
     1.6351   1.6648   1.6867   1.7070   1.7200   1.7560   1.7646   1.7911
     1.8157   1.8288   1.8600   1.9219   1.9367   1.9701   1.9871   2.0091
     2.0425   2.0814   2.1007   2.1617   2.3371   2.4739   2.5550   2.6912

          k =-0.1250 0.3750-0.3750 (132616 PWs)   bands (ev):

   -18.5577 -18.5369 -18.4938 -18.4421 -18.3871 -18.3445 -18.2847 -18.2746
   -18.2737 -18.2672 -18.2617 -18.2315 -18.2240 -18.2210 -18.2207 -18.2179
   -18.2174 -18.2165 -18.2157 -18.2137 -18.2134 -18.2131 -18.2096 -18.2065
   -18.2062 -18.2020 -18.1999 -18.1998 -18.1963 -18.1939 -18.1932 -18.1924
   -18.1509 -18.1247 -18.1142 -18.0950 -18.0915 -18.0841 -18.0834 -18.0796
   -18.0687 -18.0603 -18.0544 -18.0366 -18.0317 -18.0173 -18.0086 -18.0043
    -9.4154  -9.3850  -9.3210  -9.2126  -9.1896  -9.1562  -9.1301  -9.0691
    -8.9927  -8.9736  -8.9277  -8.9108  -8.8838  -8.8767  -8.8535  -8.8252
    -8.7731  -8.7475  -8.7016  -8.6668  -8.6419  -8.5811  -8.5572  -8.5227
    -5.3153  -5.3101  -5.3085  -5.3049  -5.2904  -5.2820  -5.2646  -5.2599
    -5.2414  -5.2061  -5.1970  -5.1797  -5.1685  -5.1498  -5.1383  -5.1233
    -5.1152  -5.1065  -5.0126  -4.9971  -4.9921  -4.9491  -4.9463  -4.9358
    -4.1829  -3.9830  -3.9452  -3.7319  -3.6349  -3.4013  -3.3896  -3.1506
    -0.6567  -0.5866  -0.5639  -0.5136  -0.3567  -0.2672  -0.2185  -0.1740
    -0.0884  -0.0696   0.0545   0.1793   0.2841   0.3822   0.4267   0.4884
     0.5122   0.5532   0.5765   0.6180   0.6489   0.6755   0.7142   0.7322
     0.7834   0.8519   0.8952   0.9577   0.9918   1.0185   1.0443   1.1049
     1.1308   1.1940   1.2247   1.2422   1.2771   1.2960   1.3414   1.3539
     1.3771   1.4099   1.5002   1.5320   1.5663   1.5749   1.5984   1.6314
     1.6588   1.6723   1.6886   1.6978   1.7269   1.7494   1.7639   1.7855
     1.7994   1.8357   1.8691   1.9157   1.9463   1.9687   1.9869   2.0101
     2.0366   2.0771   2.1147   2.1735   2.3324   2.4452   2.5678   2.6898

          k = 0.1250-0.3750-0.3750 (132616 PWs)   bands (ev):

   -18.5577 -18.5369 -18.4938 -18.4421 -18.3871 -18.3445 -18.2847 -18.2746
   -18.2737 -18.2672 -18.2617 -18.2315 -18.2240 -18.2210 -18.2207 -18.2179
   -18.2174 -18.2165 -18.2157 -18.2137 -18.2134 -18.2131 -18.2096 -18.2065
   -18.2062 -18.2020 -18.1999 -18.1998 -18.1963 -18.1939 -18.1932 -18.1924
   -18.1509 -18.1247 -18.1142 -18.0950 -18.0915 -18.0841 -18.0834 -18.0796
   -18.0687 -18.0603 -18.0544 -18.0366 -18.0317 -18.0173 -18.0086 -18.0043
    -9.4165  -9.3831  -9.3212  -9.2120  -9.1975  -9.1507  -9.1269  -9.0707
    -8.9931  -8.9746  -8.9267  -8.9115  -8.8820  -8.8733  -8.8561  -8.8298
    -8.7692  -8.7479  -8.7029  -8.6679  -8.6403  -8.5810  -8.5573  -8.5229
    -5.3146  -5.3102  -5.3089  -5.3055  -5.2903  -5.2817  -5.2646  -5.2599
    -5.2415  -5.2061  -5.1969  -5.1798  -5.1684  -5.1498  -5.1384  -5.1232
    -5.1151  -5.1066  -5.0125  -4.9973  -4.9920  -4.9490  -4.9463  -4.9358
    -4.1788  -4.0065  -3.9181  -3.7571  -3.6023  -3.4590  -3.3438  -3.1533
    -0.6696  -0.5782  -0.5684  -0.5045  -0.3645  -0.2993  -0.2281  -0.1553
    -0.0664  -0.0140   0.0241   0.1759   0.2961   0.3798   0.4322   0.4647
     0.5253   0.5762   0.5872   0.6185   0.6266   0.6510   0.6885   0.7260
     0.7906   0.8571   0.8922   0.9676   0.9879   1.0117   1.0501   1.1246
     1.1393   1.1632   1.2265   1.2487   1.2747   1.2967   1.3196   1.3714
     1.3892   1.4121   1.5078   1.5296   1.5653   1.5840   1.6025   1.6269
     1.6435   1.6694   1.6811   1.6951   1.7227   1.7397   1.7666   1.7795
     1.8143   1.8597   1.8662   1.9125   1.9401   1.9698   1.9903   1.9981
     2.0397   2.0839   2.1192   2.1647   2.3247   2.4479   2.5874   2.6869

          k = 0.3750 0.1250-0.3750 (132616 PWs)   bands (ev):

   -18.5577 -18.5369 -18.4938 -18.4421 -18.3871 -18.3445 -18.2847 -18.2746
   -18.2737 -18.2672 -18.2617 -18.2315 -18.2240 -18.2210 -18.2207 -18.2180
   -18.2174 -18.2165 -18.2158 -18.2138 -18.2134 -18.2129 -18.2096 -18.2065
   -18.2062 -18.2020 -18.1999 -18.1998 -18.1963 -18.1939 -18.1932 -18.1924
   -18.1509 -18.1247 -18.1142 -18.0950 -18.0915 -18.0841 -18.0834 -18.0796
   -18.0687 -18.0603 -18.0544 -18.0366 -18.0317 -18.0173 -18.0086 -18.0043
    -9.4296  -9.3788  -9.2820  -9.2372  -9.1990  -9.1541  -9.1276  -9.0841
    -9.0048  -8.9583  -8.9230  -8.9077  -8.8823  -8.8672  -8.8464  -8.8186
    -8.7991  -8.7539  -8.6939  -8.6656  -8.6382  -8.5802  -8.5549  -8.5283
    -5.3152  -5.3101  -5.3092  -5.3047  -5.2902  -5.2814  -5.2648  -5.2600
    -5.2416  -5.2060  -5.1973  -5.1799  -5.1679  -5.1502  -5.1380  -5.1232
    -5.1154  -5.1065  -5.0132  -4.9968  -4.9919  -4.9488  -4.9465  -4.9356
    -4.1918  -3.9790  -3.9291  -3.7005  -3.6636  -3.4384  -3.3737  -3.1513
    -0.7153  -0.5885  -0.5164  -0.4406  -0.3553  -0.2810  -0.1946  -0.1588
    -0.0902  -0.0495   0.0300   0.1354   0.2923   0.4344   0.4555   0.4816
     0.4919   0.5217   0.5608   0.5959   0.6208   0.6648   0.7061   0.7481
     0.7916   0.8521   0.9331   0.9681   0.9926   1.0295   1.0536   1.0789
     1.1164   1.1825   1.2012   1.2391   1.2567   1.3034   1.3206   1.3543
     1.3922   1.4152   1.4781   1.5243   1.5617   1.5781   1.5867   1.6167
     1.6367   1.6727   1.6804   1.7116   1.7405   1.7505   1.7708   1.7883
     1.8122   1.8418   1.8831   1.9010   1.9217   1.9602   1.9982   2.0044
     2.0390   2.0862   2.1312   2.1951   2.3485   2.4548   2.5542   2.6746

          k =-0.3750-0.1250-0.3750 (132616 PWs)   bands (ev):

   -18.5577 -18.5369 -18.4938 -18.4421 -18.3871 -18.3445 -18.2847 -18.2746
   -18.2737 -18.2672 -18.2617 -18.2315 -18.2240 -18.2210 -18.2207 -18.2180
   -18.2174 -18.2165 -18.2158 -18.2138 -18.2134 -18.2129 -18.2096 -18.2065
   -18.2062 -18.2020 -18.1999 -18.1998 -18.1963 -18.1939 -18.1932 -18.1924
   -18.1509 -18.1247 -18.1142 -18.0950 -18.0915 -18.0841 -18.0834 -18.0796
   -18.0687 -18.0603 -18.0544 -18.0366 -18.0317 -18.0173 -18.0086 -18.0043
    -9.4297  -9.3791  -9.2803  -9.2369  -9.2019  -9.1567  -9.1185  -9.0902
    -9.0051  -8.9577  -8.9197  -8.9097  -8.8834  -8.8654  -8.8492  -8.8193
    -8.7967  -8.7540  -8.6947  -8.6647  -8.6381  -8.5815  -8.5549  -8.5277
    -5.3158  -5.3103  -5.3087  -5.3041  -5.2903  -5.2817  -5.2646  -5.2601
    -5.2416  -5.2060  -5.1972  -5.1800  -5.1679  -5.1503  -5.1379  -5.1231
    -5.1154  -5.1065  -5.0133  -4.9967  -4.9918  -4.9488  -4.9465  -4.9355
    -4.1935  -3.9790  -3.9187  -3.7354  -3.6322  -3.4505  -3.3685  -3.1494
    -0.7203  -0.5810  -0.5416  -0.4289  -0.3251  -0.2555  -0.2126  -0.1777
    -0.1040  -0.0866   0.0825   0.1289   0.2923   0.4104   0.4660   0.4710
     0.5044   0.5374   0.5744   0.6067   0.6189   0.6769   0.6961   0.7202
     0.7777   0.8671   0.9290   0.9592   0.9877   1.0160   1.0671   1.1016
     1.1260   1.1736   1.2146   1.2368   1.2626   1.2869   1.3130   1.3370
     1.3947   1.4117   1.4796   1.5279   1.5644   1.5783   1.5904   1.6177
     1.6462   1.6628   1.6743   1.7053   1.7314   1.7566   1.7720   1.7770
     1.7998   1.8598   1.8728   1.9004   1.9333   1.9852   2.0049   2.0167
     2.0446   2.0905   2.0989   2.1953   2.3482   2.4753   2.5459   2.6615

          k = 0.3750-0.1250 0.3750 (132616 PWs)   bands (ev):

   -18.5577 -18.5369 -18.4938 -18.4421 -18.3871 -18.3445 -18.2847 -18.2746
   -18.2737 -18.2672 -18.2617 -18.2315 -18.2240 -18.2210 -18.2207 -18.2180
   -18.2174 -18.2165 -18.2158 -18.2138 -18.2134 -18.2129 -18.2096 -18.2065
   -18.2062 -18.2020 -18.1999 -18.1998 -18.1963 -18.1939 -18.1932 -18.1924
   -18.1509 -18.1247 -18.1142 -18.0950 -18.0915 -18.0841 -18.0834 -18.0796
   -18.0687 -18.0603 -18.0544 -18.0366 -18.0317 -18.0173 -18.0086 -18.0043
    -9.4289  -9.3797  -9.2856  -9.2308  -9.1989  -9.1585  -9.1258  -9.0841
    -9.0027  -8.9620  -8.9213  -8.9079  -8.8836  -8.8675  -8.8462  -8.8178
    -8.7962  -8.7565  -8.6946  -8.6657  -8.6363  -8.5813  -8.5550  -8.5280
    -5.3158  -5.3102  -5.3087  -5.3041  -5.2902  -5.2817  -5.2647  -5.2601
    -5.2415  -5.2061  -5.1973  -5.1799  -5.1681  -5.1500  -5.1379  -5.1234
    -5.1154  -5.1064  -5.0132  -4.9967  -4.9919  -4.9489  -4.9465  -4.9355
    -4.1932  -3.9780  -3.9204  -3.7447  -3.6183  -3.4497  -3.3721  -3.1513
    -0.7060  -0.5939  -0.5247  -0.4413  -0.3265  -0.2634  -0.2111  -0.1788
    -0.1130  -0.0732   0.0686   0.1311   0.2981   0.4112   0.4518   0.4797
     0.5042   0.5181   0.5782   0.5983   0.6437   0.6711   0.7010   0.7389
     0.7839   0.8596   0.9205   0.9627   0.9932   1.0124   1.0643   1.1089
     1.1246   1.1815   1.2017   1.2354   1.2621   1.2974   1.3043   1.3469
     1.3744   1.4158   1.4604   1.5278   1.5721   1.5825   1.6081   1.6217
     1.6418   1.6663   1.6814   1.7048   1.7251   1.7512   1.7761   1.8061
     1.8115   1.8436   1.8644   1.9079   1.9220   1.9836   2.0021   2.0159
     2.0427   2.0832   2.1000   2.1866   2.3282   2.4655   2.5775   2.6596

          k =-0.3750 0.1250 0.3750 (132616 PWs)   bands (ev):

   -18.5577 -18.5369 -18.4938 -18.4421 -18.3871 -18.3445 -18.2847 -18.2746
   -18.2737 -18.2672 -18.2617 -18.2315 -18.2240 -18.2210 -18.2207 -18.2180
   -18.2174 -18.2165 -18.2158 -18.2138 -18.2134 -18.2129 -18.2096 -18.2065
   -18.2062 -18.2020 -18.1999 -18.1998 -18.1963 -18.1939 -18.1932 -18.1924
   -18.1509 -18.1247 -18.1142 -18.0950 -18.0915 -18.0841 -18.0834 -18.0796
   -18.0687 -18.0603 -18.0544 -18.0366 -18.0317 -18.0173 -18.0086 -18.0043
    -9.4295  -9.3780  -9.2862  -9.2300  -9.2056  -9.1534  -9.1224  -9.0869
    -9.0036  -8.9616  -8.9201  -8.9082  -8.8849  -8.8631  -8.8485  -8.8224
    -8.7940  -8.7544  -8.6965  -8.6659  -8.6354  -8.5804  -8.5556  -8.5282
    -5.3151  -5.3102  -5.3091  -5.3047  -5.2901  -5.2814  -5.2647  -5.2600
    -5.2416  -5.2061  -5.1972  -5.1800  -5.1680  -5.1500  -5.1379  -5.1234
    -5.1153  -5.1065  -5.0132  -4.9968  -4.9918  -4.9488  -4.9465  -4.9355
    -4.1906  -3.9787  -3.9306  -3.7079  -3.6582  -3.4373  -3.3719  -3.1519
    -0.7112  -0.5834  -0.5455  -0.4409  -0.3433  -0.2788  -0.1924  -0.1550
    -0.0874  -0.0477   0.0340   0.1360   0.2868   0.4327   0.4472   0.4769
     0.5022   0.5372   0.5710   0.5907   0.6094   0.6579   0.7061   0.7463
     0.7817   0.8533   0.9324   0.9704   0.9979   1.0374   1.0539   1.0872
     1.1060   1.1853   1.2242   1.2384   1.2616   1.2953   1.3164   1.3375
     1.3844   1.4017   1.4562   1.5239   1.5611   1.5828   1.6135   1.6295
     1.6485   1.6681   1.6854   1.7064   1.7276   1.7409   1.7651   1.7836
     1.8188   1.8375   1.8867   1.9166   1.9283   1.9659   1.9904   2.0005
     2.0364   2.0909   2.1218   2.1899   2.3572   2.4517   2.5564   2.6803

          k = 0.3750-0.3750 0.1250 (132616 PWs)   bands (ev):

   -18.5577 -18.5369 -18.4938 -18.4421 -18.3871 -18.3445 -18.2847 -18.2746
   -18.2737 -18.2672 -18.2617 -18.2315 -18.2240 -18.2212 -18.2205 -18.2179
   -18.2174 -18.2165 -18.2158 -18.2137 -18.2134 -18.2131 -18.2096 -18.2065
   -18.2062 -18.2020 -18.1999 -18.1998 -18.1963 -18.1939 -18.1932 -18.1924
   -18.1509 -18.1247 -18.1142 -18.0950 -18.0915 -18.0841 -18.0834 -18.0796
   -18.0687 -18.0603 -18.0544 -18.0366 -18.0317 -18.0173 -18.0086 -18.0043
    -9.4181  -9.3881  -9.3055  -9.2322  -9.1869  -9.1550  -9.1256  -9.0594
    -8.9892  -8.9715  -8.9363  -8.9083  -8.8998  -8.8752  -8.8568  -8.8164
    -8.7867  -8.7402  -8.6973  -8.6593  -8.6386  -8.5904  -8.5553  -8.5228
    -5.3152  -5.3102  -5.3085  -5.3048  -5.2905  -5.2823  -5.2643  -5.2599
    -5.2413  -5.2059  -5.1970  -5.1798  -5.1686  -5.1500  -5.1385  -5.1227
    -5.1153  -5.1064  -5.0129  -4.9968  -4.9919  -4.9488  -4.9462  -4.9360
    -4.1879  -3.9815  -3.9272  -3.7085  -3.6584  -3.4394  -3.3753  -3.1469
    -0.6589  -0.5972  -0.5807  -0.5318  -0.3716  -0.2831  -0.2223  -0.1520
    -0.0742   0.0012   0.0900   0.1346   0.3012   0.4147   0.4378   0.4598
     0.5200   0.5439   0.5824   0.6184   0.6357   0.7066   0.7169   0.7606
     0.7956   0.8708   0.8948   0.9366   0.9610   0.9768   1.0823   1.1028
     1.1245   1.1934   1.2260   1.2618   1.2894   1.3102   1.3385   1.3745
     1.3933   1.4270   1.4962   1.5090   1.5427   1.5586   1.5866   1.6113
     1.6230   1.6340   1.6677   1.7074   1.7263   1.7413   1.7766   1.8011
     1.8458   1.8657   1.8844   1.8969   1.9240   1.9613   1.9857   2.0173
     2.0277   2.0632   2.1200   2.2033   2.2770   2.4235   2.4948   2.6624

          k =-0.3750-0.3750-0.1250 (132616 PWs)   bands (ev):

   -18.5577 -18.5369 -18.4938 -18.4421 -18.3871 -18.3445 -18.2847 -18.2746
   -18.2737 -18.2672 -18.2617 -18.2315 -18.2240 -18.2212 -18.2205 -18.2179
   -18.2174 -18.2165 -18.2158 -18.2137 -18.2134 -18.2131 -18.2096 -18.2065
   -18.2062 -18.2020 -18.1999 -18.1998 -18.1963 -18.1939 -18.1932 -18.1924
   -18.1509 -18.1247 -18.1142 -18.0950 -18.0915 -18.0841 -18.0834 -18.0796
   -18.0687 -18.0603 -18.0544 -18.0366 -18.0317 -18.0173 -18.0086 -18.0043
    -9.4201  -9.3859  -9.3019  -9.2419  -9.1776  -9.1583  -9.1245  -9.0617
    -8.9963  -8.9623  -8.9347  -8.9122  -8.8974  -8.8719  -8.8617  -8.8159
    -8.7902  -8.7328  -8.7020  -8.6561  -8.6421  -8.5901  -8.5552  -8.5225
    -5.3152  -5.3102  -5.3084  -5.3048  -5.2906  -5.2822  -5.2642  -5.2599
    -5.2414  -5.2058  -5.1970  -5.1799  -5.1685  -5.1503  -5.1386  -5.1224
    -5.1154  -5.1065  -5.0131  -4.9968  -4.9918  -4.9488  -4.9462  -4.9360
    -4.1890  -3.9772  -3.9248  -3.7335  -3.6367  -3.4335  -3.3875  -3.1423
    -0.6638  -0.6092  -0.5759  -0.5277  -0.3999  -0.2755  -0.1910  -0.1097
    -0.0789  -0.0155   0.0391   0.1780   0.3067   0.4098   0.4166   0.4819
     0.5098   0.5436   0.5906   0.6219   0.6350   0.6802   0.7126   0.7498
     0.7988   0.8823   0.9009   0.9337   0.9736   0.9765   1.0845   1.1051
     1.1112   1.1918   1.2151   1.2780   1.2971   1.3045   1.3457   1.3580
     1.4052   1.4209   1.4736   1.5082   1.5387   1.5817   1.5919   1.6068
     1.6242   1.6523   1.6746   1.7097   1.7199   1.7435   1.7598   1.7898
     1.8134   1.8434   1.8722   1.9215   1.9297   1.9563   1.9949   2.0271
     2.0614   2.0823   2.1234   2.1851   2.2758   2.4244   2.4978   2.6526

          k = 0.3750 0.3750-0.1250 (132616 PWs)   bands (ev):

   -18.5577 -18.5369 -18.4938 -18.4421 -18.3871 -18.3445 -18.2847 -18.2746
   -18.2737 -18.2672 -18.2617 -18.2315 -18.2240 -18.2212 -18.2205 -18.2179
   -18.2174 -18.2165 -18.2158 -18.2137 -18.2134 -18.2131 -18.2096 -18.2065
   -18.2062 -18.2020 -18.1999 -18.1998 -18.1963 -18.1939 -18.1932 -18.1924
   -18.1509 -18.1247 -18.1142 -18.0950 -18.0915 -18.0841 -18.0834 -18.0796
   -18.0687 -18.0603 -18.0544 -18.0366 -18.0317 -18.0173 -18.0086 -18.0043
    -9.4195  -9.3868  -9.3008  -9.2429  -9.1818  -9.1502  -9.1295  -9.0592
    -8.9929  -8.9666  -8.9388  -8.9085  -8.8966  -8.8737  -8.8595  -8.8174
    -8.7898  -8.7334  -8.7015  -8.6547  -8.6442  -8.5889  -8.5551  -8.5230
    -5.3145  -5.3101  -5.3090  -5.3054  -5.2906  -5.2819  -5.2643  -5.2598
    -5.2414  -5.2058  -5.1971  -5.1798  -5.1684  -5.1502  -5.1387  -5.1224
    -5.1153  -5.1066  -5.0129  -4.9969  -4.9918  -4.9488  -4.9462  -4.9360
    -4.1884  -3.9746  -3.9273  -3.7470  -3.6198  -3.4336  -3.3899  -3.1442
    -0.6661  -0.6021  -0.5736  -0.5246  -0.4085  -0.2730  -0.1874  -0.1127
    -0.0811  -0.0191   0.0318   0.1782   0.3097   0.4104   0.4269   0.4834
     0.5085   0.5389   0.5854   0.6056   0.6619   0.6770   0.7098   0.7326
     0.8193   0.8766   0.8952   0.9468   0.9672   0.9827   1.0819   1.0965
     1.1031   1.1973   1.2212   1.2490   1.2826   1.3143   1.3572   1.3740
     1.4075   1.4613   1.4755   1.5254   1.5337   1.5604   1.5828   1.6016
     1.6186   1.6406   1.6621   1.7020   1.7248   1.7553   1.7826   1.8041
     1.8200   1.8460   1.8732   1.9115   1.9316   1.9478   1.9860   2.0373
     2.0502   2.0779   2.1269   2.1583   2.2551   2.4523   2.4882   2.6730

          k =-0.3750 0.3750 0.1250 (132616 PWs)   bands (ev):

   -18.5577 -18.5369 -18.4938 -18.4421 -18.3871 -18.3445 -18.2847 -18.2746
   -18.2737 -18.2672 -18.2617 -18.2315 -18.2240 -18.2212 -18.2205 -18.2179
   -18.2174 -18.2165 -18.2158 -18.2137 -18.2134 -18.2131 -18.2096 -18.2065
   -18.2062 -18.2020 -18.1999 -18.1998 -18.1963 -18.1939 -18.1932 -18.1924
   -18.1509 -18.1247 -18.1142 -18.0950 -18.0915 -18.0841 -18.0834 -18.0796
   -18.0687 -18.0603 -18.0544 -18.0366 -18.0317 -18.0173 -18.0086 -18.0043
    -9.4189  -9.3870  -9.3037  -9.2358  -9.1899  -9.1554  -9.1178  -9.0616
    -8.9903  -8.9712  -8.9364  -8.9121  -8.8942  -8.8710  -8.8625  -8.8196
    -8.7832  -8.7399  -8.6983  -8.6607  -8.6371  -8.5899  -8.5556  -8.5229
    -5.3145  -5.3102  -5.3090  -5.3054  -5.2904  -5.2820  -5.2643  -5.2598
    -5.2414  -5.2059  -5.1969  -5.1799  -5.1685  -5.1500  -5.1386  -5.1227
    -5.1152  -5.1065  -5.0129  -4.9969  -4.9918  -4.9488  -4.9462  -4.9360
    -4.1863  -3.9807  -3.9286  -3.7187  -3.6522  -3.4368  -3.3739  -3.1473
    -0.6716  -0.6016  -0.5852  -0.5198  -0.3754  -0.2742  -0.2184  -0.1490
    -0.0733  -0.0032   0.0984   0.1405   0.3136   0.4069   0.4277   0.4644
     0.5065   0.5495   0.5837   0.6257   0.6411   0.6866   0.7101   0.7605
     0.7991   0.8724   0.8891   0.9336   0.9653   0.9916   1.0864   1.1140
     1.1422   1.1683   1.1967   1.2330   1.2992   1.3131   1.3465   1.3618
     1.4104   1.4436   1.4878   1.5164   1.5428   1.5692   1.5831   1.6077
     1.6336   1.6543   1.6692   1.6867   1.7198   1.7254   1.7804   1.7961
     1.8469   1.8580   1.8846   1.8949   1.9278   1.9513   1.9930   2.0190
     2.0443   2.0785   2.1124   2.1788   2.2691   2.4437   2.5061   2.6618

          k =-0.3750-0.3750 0.3750 (132612 PWs)   bands (ev):

   -18.5577 -18.5369 -18.4938 -18.4421 -18.3871 -18.3445 -18.2847 -18.2746
   -18.2737 -18.2672 -18.2617 -18.2315 -18.2240 -18.2210 -18.2207 -18.2179
   -18.2174 -18.2165 -18.2158 -18.2137 -18.2134 -18.2131 -18.2096 -18.2065
   -18.2062 -18.2020 -18.1999 -18.1998 -18.1963 -18.1939 -18.1932 -18.1924
   -18.1509 -18.1247 -18.1142 -18.0950 -18.0915 -18.0841 -18.0834 -18.0796
   -18.0687 -18.0603 -18.0544 -18.0366 -18.0317 -18.0173 -18.0086 -18.0043
    -9.4085  -9.3781  -9.2975  -9.2536  -9.1851  -9.1673  -9.1401  -9.0881
    -8.9901  -8.9582  -8.9241  -8.9038  -8.8807  -8.8710  -8.8459  -8.8218
    -8.7832  -8.7406  -8.7016  -8.6571  -8.6467  -8.5815  -8.5619  -8.5281
    -5.3151  -5.3101  -5.3092  -5.3048  -5.2903  -5.2814  -5.2648  -5.2600
    -5.2416  -5.2058  -5.1970  -5.1796  -5.1684  -5.1503  -5.1387  -5.1224
    -5.1153  -5.1065  -5.0130  -4.9968  -4.9917  -4.9488  -4.9463  -4.9357
    -4.0662  -3.8839  -3.8237  -3.8067  -3.6155  -3.5713  -3.5434  -3.3345
    -0.4368  -0.3734  -0.3284  -0.2896  -0.2513  -0.1950  -0.1666  -0.1105
    -0.0303  -0.0049   0.0202   0.2100   0.3048   0.3209   0.3480   0.4224
     0.4564   0.5130   0.5330   0.5547   0.5923   0.6167   0.6660   0.6886
     0.8586   0.8813   0.8980   0.9408   0.9782   0.9906   0.9993   1.0541
     1.0611   1.0964   1.1151   1.1725   1.2114   1.2296   1.2568   1.2979
     1.3795   1.4365   1.4827   1.5295   1.5730   1.6183   1.6257   1.6621
     1.6678   1.7051   1.7278   1.7298   1.7578   1.7637   1.7882   1.8168
     1.8400   1.8528   1.8880   1.9017   1.9275   1.9472   1.9824   2.0020
     2.0238   2.0416   2.0686   2.0946   2.1401   2.2032   2.2490   2.3368

          k =-0.3750 0.3750-0.3750 (132612 PWs)   bands (ev):

   -18.5577 -18.5369 -18.4938 -18.4421 -18.3871 -18.3445 -18.2847 -18.2746
   -18.2737 -18.2672 -18.2617 -18.2315 -18.2240 -18.2210 -18.2207 -18.2179
   -18.2174 -18.2165 -18.2158 -18.2137 -18.2134 -18.2131 -18.2096 -18.2065
   -18.2062 -18.2020 -18.1999 -18.1998 -18.1963 -18.1939 -18.1932 -18.1924
   -18.1509 -18.1247 -18.1142 -18.0950 -18.0915 -18.0841 -18.0834 -18.0796
   -18.0687 -18.0603 -18.0544 -18.0366 -18.0317 -18.0173 -18.0086 -18.0043
    -9.4074  -9.3784  -9.3049  -9.2427  -9.1909  -9.1626  -9.1434  -9.0884
    -8.9864  -8.9633  -8.9209  -8.9038  -8.8861  -8.8695  -8.8449  -8.8185
    -8.7836  -8.7428  -8.7007  -8.6619  -8.6408  -8.5829  -8.5619  -8.5279
    -5.3158  -5.3102  -5.3087  -5.3043  -5.2902  -5.2818  -5.2647  -5.2601
    -5.2415  -5.2059  -5.1969  -5.1797  -5.1686  -5.1501  -5.1385  -5.1227
    -5.1153  -5.1064  -5.0130  -4.9967  -4.9918  -4.9488  -4.9463  -4.9357
    -4.0666  -3.8881  -3.8350  -3.7845  -3.6243  -3.5710  -3.5413  -3.3346
    -0.4079  -0.3772  -0.3326  -0.2894  -0.2383  -0.2124  -0.1738  -0.1376
    -0.0676   0.0005   0.0648   0.2092   0.2691   0.3485   0.3746   0.4130
     0.4623   0.4821   0.5280   0.5679   0.5998   0.6331   0.6661   0.6951
     0.8417   0.8730   0.9035   0.9485   0.9556   0.9883   1.0118   1.0372
     1.0838   1.1099   1.1401   1.1775   1.2159   1.2259   1.2533   1.2650
     1.3681   1.4104   1.4830   1.5466   1.5799   1.6027   1.6386   1.6609
     1.6815   1.7002   1.7190   1.7362   1.7538   1.7749   1.8008   1.8061
     1.8374   1.8637   1.8871   1.8954   1.9245   1.9561   1.9766   1.9937
     2.0316   2.0401   2.0825   2.0981   2.1475   2.1764   2.2461   2.3360

          k = 0.3750-0.3750-0.3750 (132612 PWs)   bands (ev):

   -18.5577 -18.5369 -18.4938 -18.4421 -18.3871 -18.3445 -18.2847 -18.2746
   -18.2737 -18.2672 -18.2617 -18.2315 -18.2240 -18.2210 -18.2207 -18.2179
   -18.2174 -18.2165 -18.2158 -18.2137 -18.2134 -18.2131 -18.2096 -18.2065
   -18.2062 -18.2020 -18.1999 -18.1998 -18.1963 -18.1939 -18.1932 -18.1924
   -18.1509 -18.1247 -18.1142 -18.0950 -18.0915 -18.0841 -18.0834 -18.0796
   -18.0687 -18.0603 -18.0544 -18.0366 -18.0317 -18.0173 -18.0086 -18.0043
    -9.4085  -9.3768  -9.3025  -9.2472  -9.1963  -9.1603  -9.1350  -9.0919
    -8.9868  -8.9637  -8.9203  -8.9051  -8.8825  -8.8681  -8.8474  -8.8240
    -8.7786  -8.7428  -8.7018  -8.6634  -8.6393  -8.5819  -8.5626  -8.5281
    -5.3151  -5.3102  -5.3091  -5.3049  -5.2902  -5.2815  -5.2647  -5.2600
    -5.2416  -5.2059  -5.1968  -5.1798  -5.1685  -5.1501  -5.1386  -5.1226
    -5.1152  -5.1065  -5.0129  -4.9969  -4.9917  -4.9488  -4.9463  -4.9357
    -4.0616  -3.8957  -3.8387  -3.7767  -3.6345  -3.5892  -3.5098  -3.3389
    -0.4404  -0.3760  -0.3413  -0.2864  -0.2408  -0.2015  -0.1621  -0.1253
    -0.0359  -0.0065   0.0830   0.1986   0.2634   0.3299   0.3798   0.4212
     0.4358   0.5042   0.5252   0.5727   0.6009   0.6300   0.6584   0.6759
     0.8484   0.8753   0.9224   0.9312   0.9404   0.9995   1.0171   1.0605
     1.0876   1.0978   1.1330   1.1643   1.1987   1.2226   1.2490   1.2999
     1.3425   1.4356   1.4956   1.5371   1.5599   1.6293   1.6419   1.6542
     1.6748   1.7000   1.7122   1.7243   1.7542   1.7811   1.7924   1.8023
     1.8465   1.8623   1.8738   1.9034   1.9269   1.9658   1.9678   2.0047
     2.0234   2.0544   2.0716   2.1047   2.1381   2.1660   2.2879   2.3213

     highest occupied level (ev):     3.2191

!    total energy              =   -2256.30721621 Ry
     estimated scf accuracy    <          3.5E-11 Ry

     The total energy is the sum of the following terms:
     one-electron contribution =    -996.79818479 Ry
     hartree contribution      =     626.63050357 Ry
     xc contribution           =    -647.57137023 Ry
     ewald contribution        =   -1238.56816475 Ry

     convergence has been achieved in  15 iterations

     Forces acting on atoms (cartesian axes, Ry/au):

     atom    1 type  1   force =    -0.00054045    0.00305707    0.00065178
     atom    2 type  2   force =    -0.01357890   -0.01048719    0.02486821
     atom    3 type  3   force =    -0.00856668    0.00918842    0.00408732
     atom    4 type  3   force =     0.00431778    0.00932079   -0.00783266
     atom    5 type  3   force =     0.00149426   -0.01600523   -0.00252243
     atom    6 type  1   force =     0.00149583    0.00129110   -0.00013406
     atom    7 type  2   force =     0.00070065    0.00343915    0.01304295
     atom    8 type  3   force =    -0.01740899   -0.00110397    0.00277364
     atom    9 type  3   force =    -0.00121801    0.00170184   -0.02688449
     atom   10 type  3   force =     0.00114539   -0.00154906   -0.00427492
     atom   11 type  1   force =    -0.00528163   -0.00166438   -0.00187726
     atom   12 type  2   force =    -0.00176571    0.01186316    0.00181358
     atom   13 type  3   force =    -0.02663143   -0.00348759   -0.00133323
     atom   14 type  3   force =     0.00234595   -0.00305272   -0.02158053
     atom   15 type  3   force =     0.00183578    0.00564903   -0.00799017
     atom   16 type  1   force =     0.00163134   -0.00253788    0.00194471
     atom   17 type  2   force =    -0.01111501   -0.00564883    0.00950561
     atom   18 type  3   force =     0.00185470   -0.00404205    0.00253897
     atom   19 type  3   force =     0.00210855    0.00217124    0.01549544
     atom   20 type  3   force =     0.00149543    0.00742853    0.00587644
     atom   21 type  1   force =     0.00168455    0.00133519   -0.00129434
     atom   22 type  2   force =     0.01289475   -0.00517928   -0.00127761
     atom   23 type  3   force =    -0.00042888    0.00296493    0.00081381
     atom   24 type  3   force =     0.01007960    0.00576473   -0.01550391
     atom   25 type  3   force =    -0.00306776   -0.01049296    0.00432674
     atom   26 type  1   force =    -0.00245417    0.00218779    0.00105439
     atom   27 type  2   force =    -0.00712581    0.00036141   -0.00179466
     atom   28 type  3   force =     0.00834568    0.00402750    0.00496848
     atom   29 type  3   force =     0.00045889    0.00267106    0.00646353
     atom   30 type  3   force =     0.00185892   -0.03050455    0.00007419
     atom   31 type  1   force =    -0.00035016   -0.00754274   -0.00308939
     atom   32 type  2   force =     0.01193969    0.00314680   -0.01328099
     atom   33 type  3   force =     0.02357580    0.00182901   -0.00093918
     atom   34 type  3   force =     0.00166561   -0.00132664   -0.01020565
     atom   35 type  3   force =     0.00755070   -0.00388640    0.00050315
     atom   36 type  1   force =    -0.00126358   -0.00203060    0.00162740
     atom   37 type  2   force =     0.01012217    0.02493730    0.01633960
     atom   38 type  3   force =    -0.00997525   -0.00069543    0.00226446
     atom   39 type  3   force =    -0.00336987    0.00375895   -0.00492387
     atom   40 type  3   force =     0.00354027    0.00314250    0.00570496

     Total force =     0.095481     Total SCF correction =     0.000026


     Computing stress (Cartesian axis) and pressure

          total   stress  (Ry/bohr**3)                   (kbar)     P=       -6.26
  -0.00004670  -0.00000052  -0.00000058           -6.87       -0.08       -0.08
  -0.00000052  -0.00004557  -0.00000169           -0.08       -6.70       -0.25
  -0.00000058  -0.00000169  -0.00003532           -0.08       -0.25       -5.20

 
     init_run     :     19.79s CPU     17.01s WALL (       1 calls)
     electrons    :    198.28s CPU    210.29s WALL (       1 calls)
     forces       :      8.89s CPU      3.96s WALL (       1 calls)
     stress       :     29.73s CPU     30.76s WALL (       1 calls)

     Called by init_run:
     wfcinit      :     11.97s CPU     13.94s WALL (       1 calls)
                                       13.94s GPU  (       1 calls)
     potinit      :      4.47s CPU      1.40s WALL (       1 calls)
     hinit0       :      2.77s CPU      0.99s WALL (       1 calls)

     Called by electrons:
     c_bands      :    116.78s CPU    167.37s WALL (      16 calls)
     sum_band     :     22.13s CPU     21.31s WALL (      16 calls)
                                       21.31s GPU  (      16 calls)
     v_of_rho     :     54.98s CPU     16.69s WALL (      16 calls)
     mix_rho      :      6.62s CPU      5.25s WALL (      16 calls)

     Called by c_bands:
     init_us_2    :      2.23s CPU      3.00s WALL (     280 calls)
                                        3.00s GPU  (     280 calls)
     cegterg      :     77.65s CPU    125.25s WALL (     128 calls)

     Called by *egterg:
     cdiaghg      :     14.35s CPU     25.47s WALL (     658 calls)
                                       25.44s GPU  (     658 calls)
     h_psi        :     51.76s CPU     72.63s WALL (     674 calls)
                                       72.20s GPU  (     674 calls)
     g_psi        :      0.00s CPU      0.35s WALL (     538 calls)
                                        0.34s GPU  (     538 calls)

     Called by h_psi:
     h_psi:calbec :      0.32s CPU      9.77s WALL (     674 calls)
                                        9.76s GPU  (     674 calls)
     vloc_psi     :     38.07s CPU     53.09s WALL (     674 calls)
                                       52.19s GPU  (     674 calls)
     add_vuspsi   :      0.34s CPU      9.70s WALL (     674 calls)
                                        9.69s GPU  (     674 calls)

     General routines
     calbec       :      0.31s CPU      0.40s WALL (     714 calls)
     fft          :     25.60s CPU      6.53s WALL (     185 calls)
                                        0.00s GPU  (       6 calls)
     ffts         :      2.61s CPU      0.68s WALL (      16 calls)
     fftw         :      0.60s CPU     61.67s WALL (   10326 calls)
                                       46.05s GPU  (   10326 calls)
 
     Parallel routines
 
     PWSCF        :   4m17.34s CPU   4m22.80s WALL

 
   This run was terminated on:  20:26: 4  22Apr2021            

=------------------------------------------------------------------------------=
   JOB DONE.
=------------------------------------------------------------------------------=
