
     Program PWSCF v.6.7MaX starts on 22Apr2021 at 20:30:31 

     This program is part of the open-source Quantum ESPRESSO suite
     for quantum simulation of materials; please cite
         "P. Giannozzi et al., J. Phys.:Condens. Matter 21 395502 (2009);
         "P. Giannozzi et al., J. Phys.:Condens. Matter 29 465901 (2017);
         "P. Giannozzi et al., J. Chem. Phys. 152 154105 (2020);
          URL http://www.quantum-espresso.org", 
     in publications or presentations arising from this work. More details at
     http://www.quantum-espresso.org/quote

     Parallel version (MPI & OpenMP), running on      16 processor cores
     Number of MPI processes:                 4
     Threads/MPI process:                     4

     MPI processes distributed on     1 nodes
     K-points division:     npool     =       4
     Reading input from ESP_84.pwi
Warning: card &CELL ignored
Warning: card / ignored

     Current dimensions of program PWSCF are:
     Max number of different atomic species (ntypx) = 10
     Max number of k-points (npk) =  40000
     Max angular momentum in pseudopotentials (lmaxx) =  3
     Message from routine read_pp_mesh:
     mesh size missing, using the one in header
     Message from routine read_pp_mesh:
     mesh size missing, using the one in header
     Message from routine read_pp_mesh:
     mesh size missing, using the one in header

     Subspace diagonalization in iterative solution of the eigenvalue problem:
     a serial algorithm will be used

 
     G-vector sticks info
     --------------------
     sticks:   dense  smooth     PW     G-vecs:    dense   smooth      PW
     Sum       12589   12589   3289              1061107  1061107  140905
 
     Using Slab Decomposition
 


     bravais-lattice index     =            0
     lattice parameter (alat)  =      23.7585  a.u.
     unit-cell volume          =   13410.8736 (a.u.)^3
     number of atoms/cell      =           40
     number of atomic types    =            3
     number of electrons       =       352.00
     number of Kohn-Sham states=          176
     kinetic-energy cutoff     =      70.0000  Ry
     charge density cutoff     =     280.0000  Ry
     scf convergence threshold =      1.0E-10
     mixing beta               =       0.7000
     number of iterations used =            8  plain     mixing
     Exchange-correlation= PBESOL
                           (   1   4  10   8   0   0   0)

     GPU acceleration is ACTIVE.


     celldm(1)=  23.758500  celldm(2)=   0.000000  celldm(3)=   0.000000
     celldm(4)=   0.000000  celldm(5)=   0.000000  celldm(6)=   0.000000

     crystal axes: (cart. coord. in units of alat)
               a(1) = (   1.000000   0.000000   0.000000 )  
               a(2) = (   0.000000   1.000000   0.000000 )  
               a(3) = (   0.000000   0.000000   1.000000 )  

     reciprocal axes: (cart. coord. in units 2 pi/alat)
               b(1) = (  1.000000  0.000000  0.000000 )  
               b(2) = (  0.000000  1.000000  0.000000 )  
               b(3) = (  0.000000  0.000000  1.000000 )  


     PseudoPot. # 1 for Cs read from file:
     /m100/home/userexternal/lmonacel/espresso/pseudo/Cs-nc-pbesol.upf
     MD5 check sum: 9d2f2206a14dc5b3b3f3fbfae186bed4
     Pseudo is Norm-conserving + core correction, Zval =  9.0
     Generated using ONCVPSP code by D. R. Hamann
     Using radial grid of 2384 points,  8 beta functions with: 
                l(1) =   0
                l(2) =   0
                l(3) =   1
                l(4) =   1
                l(5) =   2
                l(6) =   2
                l(7) =   3
                l(8) =   3

     PseudoPot. # 2 for Sn read from file:
     /m100/home/userexternal/lmonacel/espresso/pseudo/Sn-nc-pbesol.upf
     MD5 check sum: c2995d571af40102bfea7461443d92cf
     Pseudo is Norm-conserving + core correction, Zval = 14.0
     Generated using ONCVPSP code by D. R. Hamann
     Using radial grid of 1628 points,  6 beta functions with: 
                l(1) =   0
                l(2) =   0
                l(3) =   1
                l(4) =   1
                l(5) =   2
                l(6) =   2

     PseudoPot. # 3 for I  read from file:
     /m100/home/userexternal/lmonacel/espresso/pseudo/I-nc-pbesol.upf
     MD5 check sum: 80ed5ceb2eb9c553cfb6760a299d9c5b
     Pseudo is Norm-conserving + core correction, Zval =  7.0
     Generated using ONCVPSP code by D. R. Hamann
     Using radial grid of 1182 points,  6 beta functions with: 
                l(1) =   0
                l(2) =   0
                l(3) =   1
                l(4) =   1
                l(5) =   2
                l(6) =   2

     atomic species   valence    mass     pseudopotential
        Cs             9.00   132.90545     Cs( 1.00)
        Sn            14.00   118.71000     Sn( 1.00)
        I              7.00   126.90447     I ( 1.00)

     No symmetry found



   Cartesian axes

     site n.     atom                  positions (alat units)
         1           Cs  tau(   1) = (   0.2827906   0.2468339   0.2188652  )
         2           Sn  tau(   2) = (   0.0011319  -0.0099492   0.0008468  )
         3           I   tau(   3) = (   0.2506527   0.0105213  -0.0005088  )
         4           I   tau(   4) = (   0.0288524  -0.0245195   0.2288451  )
         5           I   tau(   5) = (   0.0181915   0.2461390  -0.0032042  )
         6           Cs  tau(   6) = (   0.2229685   0.2566065   0.7366995  )
         7           Sn  tau(   7) = (   0.0136397   0.0122946   0.5071792  )
         8           I   tau(   8) = (   0.2726568  -0.0078411   0.5070160  )
         9           I   tau(   9) = (  -0.0167119   0.0347726   0.7433744  )
        10           I   tau(  10) = (   0.0044538   0.2535319   0.5028433  )
        11           Cs  tau(  11) = (   0.2426884   0.7260778   0.2664327  )
        12           Sn  tau(  12) = (  -0.0226411   0.4865303  -0.0187002  )
        13           I   tau(  13) = (   0.2363041   0.5034446  -0.0310316  )
        14           I   tau(  14) = (   0.0137434   0.5246580   0.2466567  )
        15           I   tau(  15) = (  -0.0169002   0.7527484   0.0078881  )
        16           Cs  tau(  16) = (   0.2891677   0.7366642   0.7597760  )
        17           Sn  tau(  17) = (  -0.0071721   0.5069287   0.4883289  )
        18           I   tau(  18) = (   0.2477422   0.5046696   0.5144244  )
        19           I   tau(  19) = (   0.0019271   0.4686751   0.7428752  )
        20           I   tau(  20) = (   0.0008784   0.7617318   0.5073241  )
        21           Cs  tau(  21) = (   0.7393964   0.2403520   0.2436766  )
        22           Sn  tau(  22) = (   0.4904451  -0.0227984   0.0113013  )
        23           I   tau(  23) = (   0.7547050   0.0096000   0.0366525  )
        24           I   tau(  24) = (   0.5168961  -0.0029660   0.2697495  )
        25           I   tau(  25) = (   0.4596290   0.2246299   0.0043867  )
        26           Cs  tau(  26) = (   0.7211909   0.2596586   0.7223750  )
        27           Sn  tau(  27) = (   0.5059955   0.0118256   0.5096816  )
        28           I   tau(  28) = (   0.7566780   0.0123919   0.4755398  )
        29           I   tau(  29) = (   0.5098071  -0.0074345   0.7788795  )
        30           I   tau(  30) = (   0.5083568   0.2631756   0.5186861  )
        31           Cs  tau(  31) = (   0.7635387   0.7718334   0.2728552  )
        32           Sn  tau(  32) = (   0.4876520   0.4764109   0.0004684  )
        33           I   tau(  33) = (   0.7311946   0.4935210   0.0077829  )
        34           I   tau(  34) = (   0.4612344   0.4981153   0.2453938  )
        35           I   tau(  35) = (   0.4866261   0.7395596   0.0244476  )
        36           Cs  tau(  36) = (   0.7997662   0.7571271   0.7750902  )
        37           Sn  tau(  37) = (   0.5016599   0.5216628   0.4990402  )
        38           I   tau(  38) = (   0.7459739   0.5044226   0.4615429  )
        39           I   tau(  39) = (   0.4609713   0.4956069   0.7446660  )
        40           I   tau(  40) = (   0.5291193   0.7619124   0.4719338  )

     number of k points=    32
                       cart. coord. in units 2pi/alat
        k(    1) = (   0.1250000   0.1250000   0.1250000), wk =   0.0625000
        k(    2) = (   0.1250000   0.1250000   0.3750000), wk =   0.0625000
        k(    3) = (   0.1250000   0.3750000   0.3750000), wk =   0.0625000
        k(    4) = (   0.3750000   0.3750000   0.3750000), wk =   0.0625000
        k(    5) = (  -0.1250000  -0.1250000   0.1250000), wk =   0.0625000
        k(    6) = (  -0.1250000   0.1250000  -0.1250000), wk =   0.0625000
        k(    7) = (   0.1250000  -0.1250000  -0.1250000), wk =   0.0625000
        k(    8) = (  -0.1250000  -0.1250000   0.3750000), wk =   0.0625000
        k(    9) = (  -0.1250000   0.1250000  -0.3750000), wk =   0.0625000
        k(   10) = (   0.1250000  -0.1250000  -0.3750000), wk =   0.0625000
        k(   11) = (   0.3750000  -0.1250000   0.1250000), wk =   0.0625000
        k(   12) = (  -0.3750000  -0.1250000  -0.1250000), wk =   0.0625000
        k(   13) = (   0.3750000   0.1250000  -0.1250000), wk =   0.0625000
        k(   14) = (  -0.3750000   0.1250000   0.1250000), wk =   0.0625000
        k(   15) = (  -0.1250000   0.3750000   0.1250000), wk =   0.0625000
        k(   16) = (  -0.1250000  -0.3750000  -0.1250000), wk =   0.0625000
        k(   17) = (   0.1250000   0.3750000  -0.1250000), wk =   0.0625000
        k(   18) = (   0.1250000  -0.3750000   0.1250000), wk =   0.0625000
        k(   19) = (  -0.1250000  -0.3750000   0.3750000), wk =   0.0625000
        k(   20) = (  -0.1250000   0.3750000  -0.3750000), wk =   0.0625000
        k(   21) = (   0.1250000  -0.3750000  -0.3750000), wk =   0.0625000
        k(   22) = (   0.3750000   0.1250000  -0.3750000), wk =   0.0625000
        k(   23) = (  -0.3750000  -0.1250000  -0.3750000), wk =   0.0625000
        k(   24) = (   0.3750000  -0.1250000   0.3750000), wk =   0.0625000
        k(   25) = (  -0.3750000   0.1250000   0.3750000), wk =   0.0625000
        k(   26) = (   0.3750000  -0.3750000   0.1250000), wk =   0.0625000
        k(   27) = (  -0.3750000  -0.3750000  -0.1250000), wk =   0.0625000
        k(   28) = (   0.3750000   0.3750000  -0.1250000), wk =   0.0625000
        k(   29) = (  -0.3750000   0.3750000   0.1250000), wk =   0.0625000
        k(   30) = (  -0.3750000  -0.3750000   0.3750000), wk =   0.0625000
        k(   31) = (  -0.3750000   0.3750000  -0.3750000), wk =   0.0625000
        k(   32) = (   0.3750000  -0.3750000  -0.3750000), wk =   0.0625000

     Dense  grid:  1061107 G-vectors     FFT dimensions: ( 128, 128, 128)

     Estimated max dynamical RAM per process >       6.82 GB

     Estimated total dynamical RAM >      27.27 GB

     Initial potential from superposition of free atoms

     starting charge  351.69472, renormalised to  352.00000
     Starting wfcs are  208 randomized atomic wfcs

     total cpu time spent up to now is       17.9 secs

     Self-consistent Calculation

     iteration #  1     ecut=    70.00 Ry     beta= 0.70
     Davidson diagonalization with overlap
     ethr =  1.00E-02,  avg # of iterations =  2.0

     Threshold (ethr) on eigenvalues was too large:
     Diagonalizing with lowered threshold

     Davidson diagonalization with overlap
     ethr =  2.19E-04,  avg # of iterations =  4.0

     total cpu time spent up to now is       39.0 secs

     total energy              =   -2256.01730507 Ry
     estimated scf accuracy    <       0.67505873 Ry

     iteration #  2     ecut=    70.00 Ry     beta= 0.70
     Davidson diagonalization with overlap
     ethr =  1.92E-04,  avg # of iterations =  3.3

     total cpu time spent up to now is       51.9 secs

     total energy              =   -2256.21807217 Ry
     estimated scf accuracy    <       0.34684541 Ry

     iteration #  3     ecut=    70.00 Ry     beta= 0.70
     Davidson diagonalization with overlap
     ethr =  9.85E-05,  avg # of iterations =  2.7

     total cpu time spent up to now is       63.9 secs

     total energy              =   -2256.28667660 Ry
     estimated scf accuracy    <       0.02732175 Ry

     iteration #  4     ecut=    70.00 Ry     beta= 0.70
     Davidson diagonalization with overlap
     ethr =  7.76E-06,  avg # of iterations =  4.1

     total cpu time spent up to now is       76.9 secs

     total energy              =   -2256.29579004 Ry
     estimated scf accuracy    <       0.00439291 Ry

     iteration #  5     ecut=    70.00 Ry     beta= 0.70
     Davidson diagonalization with overlap
     ethr =  1.25E-06,  avg # of iterations =  3.5

     total cpu time spent up to now is       89.5 secs

     total energy              =   -2256.29667048 Ry
     estimated scf accuracy    <       0.00154758 Ry

     iteration #  6     ecut=    70.00 Ry     beta= 0.70
     Davidson diagonalization with overlap
     ethr =  4.40E-07,  avg # of iterations =  3.0

     total cpu time spent up to now is      101.7 secs

     total energy              =   -2256.29695326 Ry
     estimated scf accuracy    <       0.00013898 Ry

     iteration #  7     ecut=    70.00 Ry     beta= 0.70
     Davidson diagonalization with overlap
     ethr =  3.95E-08,  avg # of iterations =  5.4

     total cpu time spent up to now is      116.0 secs

     total energy              =   -2256.29700225 Ry
     estimated scf accuracy    <       0.00003532 Ry

     iteration #  8     ecut=    70.00 Ry     beta= 0.70
     Davidson diagonalization with overlap
     ethr =  1.00E-08,  avg # of iterations =  3.8

     total cpu time spent up to now is      129.3 secs

     total energy              =   -2256.29701302 Ry
     estimated scf accuracy    <       0.00000540 Ry

     iteration #  9     ecut=    70.00 Ry     beta= 0.70
     Davidson diagonalization with overlap
     ethr =  1.53E-09,  avg # of iterations =  4.2

     total cpu time spent up to now is      143.0 secs

     total energy              =   -2256.29701502 Ry
     estimated scf accuracy    <       0.00000082 Ry

     iteration # 10     ecut=    70.00 Ry     beta= 0.70
     Davidson diagonalization with overlap
     ethr =  2.34E-10,  avg # of iterations =  4.1

     total cpu time spent up to now is      158.8 secs

     total energy              =   -2256.29701532 Ry
     estimated scf accuracy    <       0.00000024 Ry

     iteration # 11     ecut=    70.00 Ry     beta= 0.70
     Davidson diagonalization with overlap
     ethr =  6.69E-11,  avg # of iterations =  3.7

     total cpu time spent up to now is      172.6 secs

     total energy              =   -2256.29701539 Ry
     estimated scf accuracy    <       0.00000004 Ry

     iteration # 12     ecut=    70.00 Ry     beta= 0.70
     Davidson diagonalization with overlap
     ethr =  1.04E-11,  avg # of iterations =  5.7

     total cpu time spent up to now is      189.3 secs

     total energy              =   -2256.29701542 Ry
     estimated scf accuracy    <       0.00000002 Ry

     iteration # 13     ecut=    70.00 Ry     beta= 0.70
     Davidson diagonalization with overlap
     ethr =  5.43E-12,  avg # of iterations =  3.7

     total cpu time spent up to now is      202.3 secs

     total energy              =   -2256.29701542 Ry
     estimated scf accuracy    <          2.5E-09 Ry

     iteration # 14     ecut=    70.00 Ry     beta= 0.70
     Davidson diagonalization with overlap
     ethr =  7.21E-13,  avg # of iterations =  4.6

     total cpu time spent up to now is      216.7 secs

     total energy              =   -2256.29701542 Ry
     estimated scf accuracy    <          2.8E-10 Ry

     iteration # 15     ecut=    70.00 Ry     beta= 0.70
     Davidson diagonalization with overlap
     ethr =  1.00E-13,  avg # of iterations =  5.6

     total cpu time spent up to now is      232.3 secs

     End of self-consistent calculation

          k = 0.1250 0.1250 0.1250 (132670 PWs)   bands (ev):

   -18.6545 -18.4992 -18.4097 -18.3854 -18.3158 -18.3144 -18.3096 -18.3089
   -18.3046 -18.3037 -18.3035 -18.3020 -18.3015 -18.2993 -18.2992 -18.2970
   -18.2947 -18.2934 -18.2931 -18.2912 -18.2908 -18.2898 -18.2897 -18.2877
   -18.2833 -18.2824 -18.2770 -18.2731 -18.2629 -18.2212 -18.2180 -18.1898
   -18.1799 -18.1732 -18.1731 -18.1705 -18.1598 -18.1396 -18.0964 -18.0926
   -18.0784 -18.0738 -18.0695 -18.0522 -18.0431 -18.0341 -18.0254 -18.0185
    -9.3766  -9.2546  -9.2399  -9.2118  -9.1237  -9.0900  -9.0638  -9.0260
    -8.9756  -8.9529  -8.9285  -8.9072  -8.8961  -8.8700  -8.8483  -8.8231
    -8.8012  -8.7528  -8.7128  -8.6866  -8.6630  -8.6398  -8.5756  -8.5481
    -5.4265  -5.4186  -5.4029  -5.2740  -5.2658  -5.2556  -5.1862  -5.1794
    -5.1707  -5.1612  -5.1510  -5.1468  -5.0376  -5.0076  -5.0053  -5.0002
    -4.9945  -4.9861  -4.9678  -4.9588  -4.9454  -4.9307  -4.9258  -4.9197
    -4.4418  -3.9456  -3.9138  -3.8766  -3.3985  -3.3475  -3.3275  -2.7484
    -0.7527  -0.7193  -0.6840  -0.6346  -0.6234  -0.5400  -0.5087  -0.4646
    -0.3996  -0.3545  -0.2648  -0.1576   0.4460   0.5119   0.5403   0.6276
     0.6564   0.6723   0.7344   0.7696   0.8059   0.8652   0.9339   0.9639
     0.9818   1.0204   1.0466   1.0906   1.1016   1.1246   1.1588   1.1993
     1.2223   1.2476   1.2740   1.2918   1.3033   1.3392   1.3494   1.3715
     1.4014   1.4193   1.4589   1.4738   1.4929   1.5251   1.5521   1.5821
     1.5967   1.6157   1.6221   1.6314   1.6643   1.6868   1.7081   1.7392
     1.7654   1.8253   1.8933   1.9903   2.0334   2.0675   2.0959   2.1371
     2.1610   2.2270   2.2617   2.3191   2.5876   2.7355   2.7867   3.1366

          k = 0.1250 0.1250 0.3750 (132608 PWs)   bands (ev):

   -18.6545 -18.4992 -18.4097 -18.3854 -18.3158 -18.3144 -18.3096 -18.3089
   -18.3046 -18.3036 -18.3035 -18.3020 -18.3015 -18.2993 -18.2992 -18.2970
   -18.2947 -18.2934 -18.2931 -18.2912 -18.2908 -18.2898 -18.2897 -18.2877
   -18.2833 -18.2824 -18.2770 -18.2731 -18.2629 -18.2212 -18.2180 -18.1898
   -18.1799 -18.1732 -18.1731 -18.1705 -18.1598 -18.1396 -18.0964 -18.0926
   -18.0784 -18.0738 -18.0695 -18.0522 -18.0431 -18.0341 -18.0254 -18.0185
    -9.3480  -9.2955  -9.2211  -9.1909  -9.1529  -9.1101  -9.0740  -9.0218
    -8.9771  -8.9572  -8.9298  -8.9033  -8.8975  -8.8750  -8.8441  -8.7925
    -8.7755  -8.7478  -8.7145  -8.6850  -8.6681  -8.6489  -8.5865  -8.5513
    -5.4264  -5.4186  -5.4028  -5.2739  -5.2656  -5.2556  -5.1863  -5.1793
    -5.1707  -5.1614  -5.1509  -5.1469  -5.0374  -5.0075  -5.0052  -5.0001
    -4.9945  -4.9860  -4.9682  -4.9591  -4.9456  -4.9306  -4.9259  -4.9198
    -4.3155  -4.1053  -3.7860  -3.7575  -3.5736  -3.5301  -3.1989  -2.9620
    -0.7197  -0.6839  -0.6660  -0.6030  -0.5550  -0.5005  -0.4848  -0.3205
    -0.1222  -0.0306  -0.0245   0.1366   0.4168   0.4802   0.5198   0.5593
     0.5869   0.6118   0.6471   0.6884   0.7227   0.7502   0.7647   0.8199
     0.8662   0.9000   0.9670   0.9837   1.0313   1.0682   1.1247   1.1563
     1.2011   1.2330   1.2675   1.3000   1.3060   1.3289   1.3669   1.3822
     1.4046   1.4229   1.4483   1.4787   1.4930   1.5357   1.5672   1.5862
     1.6130   1.6316   1.6520   1.6656   1.6789   1.7093   1.7403   1.7678
     1.8052   1.8628   1.9055   1.9328   1.9533   1.9892   2.0478   2.0842
     2.1054   2.1808   2.2561   2.3262   2.4121   2.4894   2.7595   2.9265

          k = 0.1250 0.3750 0.3750 (132616 PWs)   bands (ev):

   -18.6545 -18.4992 -18.4097 -18.3854 -18.3158 -18.3144 -18.3096 -18.3089
   -18.3046 -18.3036 -18.3035 -18.3020 -18.3015 -18.2993 -18.2992 -18.2970
   -18.2947 -18.2934 -18.2931 -18.2912 -18.2908 -18.2898 -18.2897 -18.2877
   -18.2833 -18.2824 -18.2770 -18.2731 -18.2629 -18.2212 -18.2180 -18.1898
   -18.1799 -18.1732 -18.1731 -18.1705 -18.1598 -18.1396 -18.0964 -18.0926
   -18.0784 -18.0738 -18.0695 -18.0522 -18.0431 -18.0341 -18.0254 -18.0185
    -9.3198  -9.2751  -9.2511  -9.2112  -9.1602  -9.1111  -9.0864  -9.0304
    -9.0105  -8.9527  -8.9389  -8.8862  -8.8673  -8.8444  -8.8281  -8.7839
    -8.7715  -8.7540  -8.7257  -8.6903  -8.6705  -8.6551  -8.5874  -8.5561
    -5.4264  -5.4186  -5.4028  -5.2737  -5.2657  -5.2556  -5.1862  -5.1795
    -5.1706  -5.1611  -5.1509  -5.1467  -5.0375  -5.0070  -5.0039  -5.0010
    -4.9950  -4.9868  -4.9683  -4.9589  -4.9455  -4.9308  -4.9262  -4.9198
    -4.1851  -3.9940  -3.9304  -3.7426  -3.6365  -3.4264  -3.3879  -3.1772
    -0.6884  -0.6035  -0.5752  -0.4954  -0.3401  -0.2039  -0.1775  -0.1126
    -0.0635   0.0019   0.0662   0.1473   0.3732   0.4384   0.4496   0.4996
     0.5362   0.5704   0.6037   0.6197   0.6490   0.6882   0.7150   0.7380
     0.8058   0.8485   0.8761   0.9297   0.9492   0.9744   0.9957   1.0186
     1.1253   1.1987   1.2338   1.2740   1.2940   1.3261   1.3359   1.3656
     1.3843   1.4275   1.4647   1.4894   1.5087   1.5413   1.5832   1.6235
     1.6335   1.6675   1.6789   1.7144   1.7300   1.7565   1.7843   1.8169
     1.8290   1.8503   1.8757   1.9003   1.9292   1.9619   1.9848   2.0081
     2.0404   2.1229   2.1698   2.2393   2.3068   2.4070   2.4985   2.6897

          k = 0.3750 0.3750 0.3750 (132612 PWs)   bands (ev):

   -18.6545 -18.4992 -18.4097 -18.3854 -18.3158 -18.3144 -18.3095 -18.3089
   -18.3046 -18.3036 -18.3035 -18.3020 -18.3015 -18.2993 -18.2992 -18.2970
   -18.2947 -18.2934 -18.2931 -18.2912 -18.2908 -18.2898 -18.2897 -18.2877
   -18.2833 -18.2824 -18.2770 -18.2731 -18.2629 -18.2212 -18.2180 -18.1898
   -18.1799 -18.1732 -18.1731 -18.1705 -18.1598 -18.1396 -18.0964 -18.0926
   -18.0784 -18.0738 -18.0695 -18.0522 -18.0431 -18.0341 -18.0254 -18.0185
    -9.2979  -9.2587  -9.2551  -9.2013  -9.1814  -9.1483  -9.1077  -9.0527
    -9.0027  -8.9360  -8.9207  -8.8842  -8.8628  -8.8408  -8.8238  -8.7860
    -8.7609  -8.7523  -8.7229  -8.6798  -8.6725  -8.6626  -8.5885  -8.5683
    -5.4264  -5.4185  -5.4028  -5.2737  -5.2657  -5.2555  -5.1862  -5.1795
    -5.1707  -5.1612  -5.1509  -5.1468  -5.0374  -5.0071  -5.0040  -5.0008
    -4.9949  -4.9866  -4.9680  -4.9590  -4.9455  -4.9311  -4.9257  -4.9198
    -4.0612  -3.8750  -3.8502  -3.7745  -3.6548  -3.5951  -3.5311  -3.3609
    -0.4346  -0.4021  -0.3562  -0.2960  -0.2236  -0.1539  -0.1253  -0.0409
    -0.0288   0.0481   0.1031   0.1797   0.3407   0.3709   0.4117   0.4474
     0.4824   0.5179   0.5530   0.5898   0.6209   0.6261   0.6740   0.6769
     0.7982   0.8251   0.8857   0.9189   0.9350   0.9528   0.9981   1.0314
     1.0838   1.1297   1.1458   1.1617   1.2114   1.2327   1.2680   1.2817
     1.3028   1.3986   1.4448   1.5118   1.5437   1.6031   1.6456   1.6540
     1.6852   1.7019   1.7259   1.7449   1.7688   1.7791   1.8057   1.8178
     1.8378   1.8743   1.8811   1.9081   1.9202   1.9433   1.9575   1.9931
     2.0112   2.0345   2.0647   2.0917   2.1726   2.2211   2.2786   2.3682

          k =-0.1250-0.1250 0.1250 (132670 PWs)   bands (ev):

   -18.6545 -18.4992 -18.4097 -18.3854 -18.3158 -18.3144 -18.3096 -18.3089
   -18.3046 -18.3037 -18.3035 -18.3020 -18.3015 -18.2993 -18.2992 -18.2970
   -18.2947 -18.2934 -18.2931 -18.2912 -18.2908 -18.2898 -18.2897 -18.2877
   -18.2833 -18.2824 -18.2770 -18.2731 -18.2629 -18.2212 -18.2180 -18.1898
   -18.1799 -18.1732 -18.1731 -18.1705 -18.1598 -18.1396 -18.0964 -18.0926
   -18.0784 -18.0738 -18.0695 -18.0522 -18.0431 -18.0341 -18.0254 -18.0185
    -9.3766  -9.2550  -9.2365  -9.2151  -9.1245  -9.0914  -9.0619  -9.0275
    -8.9750  -8.9479  -8.9241  -8.9086  -8.8989  -8.8687  -8.8557  -8.8276
    -8.7969  -8.7494  -8.7108  -8.6891  -8.6638  -8.6392  -8.5754  -8.5484
    -5.4265  -5.4186  -5.4029  -5.2740  -5.2658  -5.2556  -5.1863  -5.1794
    -5.1707  -5.1612  -5.1511  -5.1467  -5.0377  -5.0076  -5.0052  -5.0002
    -4.9945  -4.9861  -4.9679  -4.9586  -4.9455  -4.9306  -4.9259  -4.9197
    -4.4415  -3.9463  -3.9046  -3.8858  -3.4005  -3.3501  -3.3233  -2.7468
    -0.7563  -0.7120  -0.6711  -0.6541  -0.5969  -0.5631  -0.5384  -0.4832
    -0.3960  -0.3334  -0.2442  -0.1434   0.4459   0.5080   0.5462   0.6281
     0.6560   0.6677   0.7513   0.7716   0.7911   0.8654   0.9137   0.9339
     0.9784   1.0234   1.0427   1.0930   1.1234   1.1443   1.1952   1.2053
     1.2162   1.2302   1.2735   1.2822   1.3052   1.3198   1.3412   1.3639
     1.3903   1.4172   1.4466   1.4884   1.4990   1.5301   1.5558   1.5736
     1.5890   1.6155   1.6309   1.6463   1.6686   1.6884   1.7103   1.7326
     1.7740   1.8227   1.8978   2.0056   2.0508   2.0648   2.0925   2.1214
     2.1508   2.2084   2.2707   2.3089   2.6067   2.7397   2.7796   3.1472

          k =-0.1250 0.1250-0.1250 (132670 PWs)   bands (ev):

   -18.6545 -18.4992 -18.4097 -18.3854 -18.3158 -18.3144 -18.3096 -18.3089
   -18.3046 -18.3037 -18.3035 -18.3020 -18.3015 -18.2993 -18.2992 -18.2970
   -18.2947 -18.2934 -18.2931 -18.2912 -18.2908 -18.2898 -18.2897 -18.2877
   -18.2833 -18.2824 -18.2770 -18.2731 -18.2629 -18.2212 -18.2180 -18.1898
   -18.1799 -18.1732 -18.1731 -18.1705 -18.1598 -18.1396 -18.0964 -18.0926
   -18.0784 -18.0738 -18.0695 -18.0522 -18.0431 -18.0341 -18.0254 -18.0185
    -9.3763  -9.2599  -9.2391  -9.2027  -9.1298  -9.0939  -9.0609  -9.0240
    -8.9774  -8.9470  -8.9258  -8.9111  -8.8977  -8.8642  -8.8550  -8.8321
    -8.7933  -8.7491  -8.7130  -8.6885  -8.6636  -8.6399  -8.5755  -8.5479
    -5.4265  -5.4186  -5.4029  -5.2740  -5.2658  -5.2556  -5.1862  -5.1795
    -5.1707  -5.1612  -5.1510  -5.1467  -5.0376  -5.0075  -5.0052  -5.0002
    -4.9945  -4.9862  -4.9679  -4.9586  -4.9455  -4.9306  -4.9258  -4.9198
    -4.4411  -3.9415  -3.9323  -3.8609  -3.4142  -3.3362  -3.3240  -2.7496
    -0.7421  -0.7015  -0.6712  -0.6492  -0.6372  -0.5565  -0.5157  -0.4748
    -0.3965  -0.3411  -0.2676  -0.1520   0.4479   0.5097   0.5372   0.6364
     0.6572   0.6662   0.7544   0.7730   0.7964   0.8892   0.9094   0.9239
     1.0010   1.0293   1.0542   1.0715   1.1043   1.1418   1.1618   1.1975
     1.2199   1.2425   1.2624   1.2926   1.3052   1.3438   1.3576   1.3661
     1.3852   1.4311   1.4565   1.4749   1.4963   1.5241   1.5581   1.5750
     1.5863   1.6046   1.6310   1.6394   1.6684   1.6960   1.7149   1.7279
     1.7749   1.8147   1.9006   2.0064   2.0411   2.0527   2.0943   2.1351
     2.1470   2.2325   2.2527   2.3210   2.6155   2.7317   2.7628   3.1300

          k = 0.1250-0.1250-0.1250 (132670 PWs)   bands (ev):

   -18.6545 -18.4992 -18.4097 -18.3854 -18.3158 -18.3144 -18.3096 -18.3089
   -18.3046 -18.3037 -18.3035 -18.3020 -18.3015 -18.2993 -18.2992 -18.2970
   -18.2947 -18.2934 -18.2931 -18.2912 -18.2908 -18.2898 -18.2897 -18.2877
   -18.2833 -18.2824 -18.2770 -18.2731 -18.2629 -18.2212 -18.2180 -18.1898
   -18.1799 -18.1732 -18.1731 -18.1705 -18.1598 -18.1396 -18.0964 -18.0926
   -18.0784 -18.0738 -18.0695 -18.0522 -18.0431 -18.0341 -18.0254 -18.0185
    -9.3764  -9.2591  -9.2401  -9.2021  -9.1321  -9.0917  -9.0599  -9.0251
    -8.9755  -8.9515  -8.9250  -8.9138  -8.8982  -8.8657  -8.8462  -8.8247
    -8.8041  -8.7488  -8.7129  -8.6898  -8.6633  -8.6382  -8.5755  -8.5483
    -5.4265  -5.4186  -5.4029  -5.2740  -5.2658  -5.2556  -5.1862  -5.1794
    -5.1707  -5.1613  -5.1510  -5.1468  -5.0376  -5.0076  -5.0052  -5.0002
    -4.9945  -4.9862  -4.9679  -4.9588  -4.9454  -4.9306  -4.9259  -4.9198
    -4.4411  -3.9540  -3.9147  -3.8660  -3.4164  -3.3373  -3.3205  -2.7499
    -0.7458  -0.7181  -0.6549  -0.6416  -0.6219  -0.5690  -0.5317  -0.4665
    -0.4093  -0.3415  -0.2531  -0.1448   0.4465   0.5140   0.5376   0.6305
     0.6513   0.6754   0.7509   0.7805   0.7853   0.8823   0.9045   0.9402
     0.9859   1.0171   1.0474   1.0697   1.1024   1.1489   1.1770   1.1999
     1.2282   1.2388   1.2682   1.2879   1.3127   1.3239   1.3353   1.3702
     1.4049   1.4362   1.4552   1.4922   1.5104   1.5265   1.5448   1.5809
     1.5894   1.6069   1.6195   1.6420   1.6576   1.6826   1.7026   1.7288
     1.7757   1.8334   1.9015   1.9973   2.0374   2.0723   2.0921   2.1314
     2.1555   2.2137   2.2744   2.3165   2.5956   2.7219   2.7903   3.1372

          k =-0.1250-0.1250 0.3750 (132608 PWs)   bands (ev):

   -18.6545 -18.4992 -18.4097 -18.3854 -18.3158 -18.3144 -18.3096 -18.3089
   -18.3046 -18.3036 -18.3035 -18.3020 -18.3015 -18.2993 -18.2992 -18.2970
   -18.2947 -18.2934 -18.2931 -18.2912 -18.2908 -18.2898 -18.2897 -18.2877
   -18.2833 -18.2824 -18.2770 -18.2731 -18.2629 -18.2212 -18.2180 -18.1898
   -18.1799 -18.1732 -18.1731 -18.1705 -18.1598 -18.1396 -18.0964 -18.0926
   -18.0784 -18.0738 -18.0695 -18.0522 -18.0431 -18.0341 -18.0254 -18.0185
    -9.3481  -9.2950  -9.2201  -9.1925  -9.1522  -9.1147  -9.0700  -9.0226
    -8.9781  -8.9526  -8.9274  -8.9049  -8.8983  -8.8729  -8.8519  -8.7939
    -8.7742  -8.7449  -8.7103  -8.6881  -8.6705  -8.6473  -8.5863  -8.5516
    -5.4264  -5.4186  -5.4028  -5.2739  -5.2656  -5.2556  -5.1863  -5.1793
    -5.1707  -5.1613  -5.1509  -5.1468  -5.0375  -5.0076  -5.0051  -5.0001
    -4.9946  -4.9860  -4.9683  -4.9588  -4.9457  -4.9306  -4.9260  -4.9198
    -4.3147  -4.1055  -3.7842  -3.7603  -3.5755  -3.5286  -3.2001  -2.9593
    -0.7237  -0.6831  -0.6526  -0.6049  -0.5544  -0.5127  -0.4949  -0.3400
    -0.1204  -0.0143   0.0061   0.1566   0.4057   0.4812   0.5273   0.5422
     0.5871   0.6186   0.6452   0.6782   0.7175   0.7375   0.7686   0.7986
     0.8562   0.9072   0.9654   0.9915   1.0319   1.0834   1.1100   1.1618
     1.2134   1.2418   1.2656   1.3055   1.3236   1.3343   1.3482   1.3717
     1.3948   1.4173   1.4350   1.4730   1.5003   1.5376   1.5663   1.5851
     1.6152   1.6283   1.6501   1.6741   1.6892   1.7149   1.7335   1.7874
     1.8105   1.8641   1.9010   1.9282   1.9528   1.9860   2.0512   2.0671
     2.1099   2.1731   2.2761   2.3024   2.4085   2.5085   2.7618   2.9292

          k =-0.1250 0.1250-0.3750 (132608 PWs)   bands (ev):

   -18.6545 -18.4992 -18.4097 -18.3854 -18.3158 -18.3144 -18.3096 -18.3089
   -18.3046 -18.3036 -18.3035 -18.3020 -18.3015 -18.2993 -18.2992 -18.2970
   -18.2947 -18.2934 -18.2931 -18.2912 -18.2908 -18.2898 -18.2897 -18.2877
   -18.2833 -18.2824 -18.2770 -18.2731 -18.2629 -18.2212 -18.2180 -18.1898
   -18.1799 -18.1732 -18.1731 -18.1705 -18.1598 -18.1396 -18.0964 -18.0926
   -18.0784 -18.0738 -18.0695 -18.0522 -18.0431 -18.0341 -18.0254 -18.0185
    -9.3477  -9.2959  -9.2235  -9.1873  -9.1526  -9.1112  -9.0747  -9.0213
    -8.9812  -8.9523  -8.9273  -8.9069  -8.8973  -8.8695  -8.8504  -8.7982
    -8.7691  -8.7470  -8.7121  -8.6869  -8.6679  -8.6502  -8.5863  -8.5511
    -5.4264  -5.4186  -5.4028  -5.2739  -5.2656  -5.2556  -5.1862  -5.1794
    -5.1707  -5.1613  -5.1509  -5.1468  -5.0375  -5.0075  -5.0052  -5.0000
    -4.9945  -4.9862  -4.9684  -4.9588  -4.9457  -4.9306  -4.9259  -4.9199
    -4.3146  -4.1046  -3.8064  -3.7364  -3.5883  -3.5148  -3.2019  -2.9620
    -0.7202  -0.6522  -0.6398  -0.6211  -0.5844  -0.5239  -0.4827  -0.3260
    -0.1183  -0.0289  -0.0092   0.1350   0.4154   0.4860   0.5258   0.5484
     0.5833   0.6182   0.6443   0.6881   0.7245   0.7509   0.7754   0.8109
     0.8482   0.9082   0.9670   0.9976   1.0440   1.0686   1.1178   1.1365
     1.1688   1.2455   1.2805   1.3101   1.3164   1.3372   1.3507   1.3810
     1.4012   1.4237   1.4423   1.4782   1.4967   1.5445   1.5572   1.6005
     1.6099   1.6382   1.6435   1.6624   1.6736   1.7127   1.7399   1.7733
     1.8125   1.8768   1.8947   1.9209   1.9603   1.9812   2.0410   2.0766
     2.1177   2.1939   2.2535   2.3183   2.4078   2.5025   2.7562   2.9096

          k = 0.1250-0.1250-0.3750 (132608 PWs)   bands (ev):

   -18.6545 -18.4992 -18.4097 -18.3854 -18.3158 -18.3144 -18.3096 -18.3089
   -18.3046 -18.3036 -18.3035 -18.3020 -18.3015 -18.2993 -18.2992 -18.2970
   -18.2947 -18.2934 -18.2931 -18.2912 -18.2908 -18.2898 -18.2897 -18.2877
   -18.2833 -18.2824 -18.2770 -18.2731 -18.2629 -18.2212 -18.2180 -18.1898
   -18.1799 -18.1732 -18.1731 -18.1705 -18.1598 -18.1396 -18.0964 -18.0926
   -18.0784 -18.0738 -18.0695 -18.0522 -18.0431 -18.0341 -18.0254 -18.0185
    -9.3480  -9.2954  -9.2253  -9.1791  -9.1623  -9.1090  -9.0721  -9.0224
    -8.9809  -8.9549  -8.9276  -8.9084  -8.8980  -8.8696  -8.8422  -8.7962
    -8.7768  -8.7456  -8.7125  -8.6874  -8.6697  -8.6467  -8.5864  -8.5515
    -5.4264  -5.4186  -5.4028  -5.2739  -5.2656  -5.2556  -5.1863  -5.1794
    -5.1707  -5.1614  -5.1509  -5.1469  -5.0375  -5.0075  -5.0051  -5.0001
    -4.9945  -4.9862  -4.9683  -4.9590  -4.9456  -4.9306  -4.9260  -4.9199
    -4.3144  -4.1053  -3.8035  -3.7379  -3.5911  -3.5137  -3.2004  -2.9627
    -0.7289  -0.6641  -0.6325  -0.6095  -0.5791  -0.5265  -0.4770  -0.3400
    -0.1234  -0.0247  -0.0001   0.1579   0.4121   0.4763   0.5215   0.5465
     0.5878   0.6145   0.6493   0.6844   0.7186   0.7357   0.7574   0.8022
     0.8645   0.9085   0.9680   0.9884   1.0473   1.0874   1.1227   1.1578
     1.1842   1.2323   1.2686   1.2930   1.3164   1.3345   1.3549   1.3721
     1.3940   1.4381   1.4631   1.4759   1.5022   1.5447   1.5612   1.5799
     1.6118   1.6273   1.6444   1.6621   1.6759   1.7098   1.7477   1.7749
     1.8039   1.8560   1.9140   1.9417   1.9540   1.9901   2.0407   2.0849
     2.1010   2.1884   2.2739   2.3053   2.3991   2.5039   2.7580   2.9189

          k = 0.3750-0.1250 0.1250 (132608 PWs)   bands (ev):

   -18.6545 -18.4992 -18.4097 -18.3854 -18.3158 -18.3144 -18.3095 -18.3089
   -18.3046 -18.3037 -18.3035 -18.3020 -18.3015 -18.2993 -18.2992 -18.2970
   -18.2947 -18.2934 -18.2931 -18.2912 -18.2908 -18.2898 -18.2897 -18.2877
   -18.2833 -18.2824 -18.2770 -18.2731 -18.2629 -18.2212 -18.2180 -18.1898
   -18.1799 -18.1732 -18.1731 -18.1705 -18.1598 -18.1396 -18.0964 -18.0926
   -18.0784 -18.0738 -18.0695 -18.0522 -18.0431 -18.0341 -18.0254 -18.0185
    -9.3452  -9.2967  -9.2239  -9.1830  -9.1587  -9.1306  -9.0580  -9.0176
    -8.9746  -8.9475  -8.9268  -8.9145  -8.8904  -8.8574  -8.8517  -8.8295
    -8.7895  -8.7304  -8.7110  -8.6744  -8.6629  -8.6527  -8.5792  -8.5619
    -5.4264  -5.4185  -5.4029  -5.2739  -5.2658  -5.2553  -5.1861  -5.1796
    -5.1707  -5.1612  -5.1510  -5.1469  -5.0377  -5.0073  -5.0053  -5.0001
    -4.9946  -4.9860  -4.9679  -4.9587  -4.9456  -4.9310  -4.9257  -4.9200
    -4.3070  -4.0962  -3.8057  -3.7462  -3.5888  -3.5262  -3.2031  -2.9741
    -0.7022  -0.6649  -0.6370  -0.6168  -0.5868  -0.5164  -0.3807  -0.2599
    -0.1071  -0.0754  -0.0465   0.0325   0.4532   0.4892   0.5113   0.5741
     0.5891   0.6151   0.6303   0.6773   0.7050   0.7199   0.7533   0.7767
     0.8585   0.8721   0.9597   1.0125   1.0769   1.1222   1.1435   1.1726
     1.1950   1.2197   1.2632   1.2865   1.3161   1.3491   1.3754   1.3917
     1.4011   1.4245   1.4468   1.4723   1.5133   1.5415   1.5627   1.5792
     1.6086   1.6358   1.6558   1.6768   1.7084   1.7204   1.7515   1.7640
     1.8002   1.8412   1.9112   1.9394   1.9551   1.9819   2.0485   2.0673
     2.1095   2.1342   2.2083   2.3041   2.3704   2.4814   2.7582   2.8858

          k =-0.3750-0.1250-0.1250 (132608 PWs)   bands (ev):

   -18.6545 -18.4992 -18.4097 -18.3854 -18.3158 -18.3144 -18.3095 -18.3089
   -18.3046 -18.3037 -18.3035 -18.3020 -18.3015 -18.2993 -18.2992 -18.2970
   -18.2947 -18.2934 -18.2931 -18.2912 -18.2908 -18.2898 -18.2897 -18.2877
   -18.2833 -18.2824 -18.2770 -18.2731 -18.2629 -18.2212 -18.2180 -18.1898
   -18.1799 -18.1732 -18.1731 -18.1705 -18.1598 -18.1396 -18.0964 -18.0926
   -18.0784 -18.0738 -18.0695 -18.0522 -18.0431 -18.0341 -18.0254 -18.0185
    -9.3463  -9.2929  -9.2270  -9.1929  -9.1473  -9.1272  -9.0602  -9.0218
    -8.9730  -8.9518  -8.9297  -8.9073  -8.8888  -8.8642  -8.8449  -8.8245
    -8.7942  -8.7354  -8.7104  -8.6701  -8.6627  -8.6541  -8.5788  -8.5624
    -5.4264  -5.4185  -5.4029  -5.2739  -5.2658  -5.2553  -5.1861  -5.1795
    -5.1707  -5.1613  -5.1510  -5.1469  -5.0376  -5.0074  -5.0054  -5.0002
    -4.9946  -4.9859  -4.9677  -4.9590  -4.9455  -4.9311  -4.9257  -4.9199
    -4.3090  -4.0915  -3.8097  -3.7514  -3.5823  -3.5212  -3.2119  -2.9701
    -0.7136  -0.6726  -0.6315  -0.6033  -0.5882  -0.5212  -0.3778  -0.2466
    -0.1150  -0.0795  -0.0398   0.0387   0.4393   0.4991   0.5151   0.5604
     0.5903   0.6036   0.6274   0.6713   0.6981   0.7227   0.7574   0.7815
     0.8655   0.8851   0.9527   1.0339   1.0719   1.0860   1.1239   1.1726
     1.2174   1.2335   1.2705   1.3047   1.3219   1.3473   1.3518   1.3906
     1.4188   1.4296   1.4430   1.4783   1.5128   1.5447   1.5651   1.5798
     1.6025   1.6261   1.6483   1.6863   1.7012   1.7296   1.7339   1.7652
     1.7960   1.8415   1.8967   1.9480   1.9577   1.9804   2.0488   2.0771
     2.1064   2.1351   2.1992   2.2765   2.3846   2.5179   2.7546   2.8811

          k = 0.3750 0.1250-0.1250 (132608 PWs)   bands (ev):

   -18.6545 -18.4992 -18.4097 -18.3854 -18.3158 -18.3144 -18.3095 -18.3089
   -18.3046 -18.3037 -18.3035 -18.3020 -18.3015 -18.2993 -18.2992 -18.2970
   -18.2947 -18.2934 -18.2931 -18.2912 -18.2908 -18.2898 -18.2897 -18.2877
   -18.2833 -18.2824 -18.2770 -18.2731 -18.2629 -18.2212 -18.2180 -18.1898
   -18.1799 -18.1732 -18.1731 -18.1705 -18.1598 -18.1396 -18.0964 -18.0926
   -18.0784 -18.0738 -18.0695 -18.0522 -18.0431 -18.0341 -18.0254 -18.0185
    -9.3465  -9.2925  -9.2238  -9.1960  -9.1513  -9.1260  -9.0601  -9.0184
    -8.9735  -8.9483  -8.9260  -8.9118  -8.8916  -8.8600  -8.8521  -8.8261
    -8.7931  -8.7298  -8.7108  -8.6739  -8.6635  -8.6517  -8.5787  -8.5629
    -5.4264  -5.4185  -5.4029  -5.2739  -5.2658  -5.2553  -5.1861  -5.1795
    -5.1707  -5.1612  -5.1511  -5.1469  -5.0377  -5.0074  -5.0053  -5.0002
    -4.9946  -4.9859  -4.9678  -4.9587  -4.9457  -4.9310  -4.9258  -4.9199
    -4.3084  -4.0916  -3.8067  -3.7548  -3.5820  -3.5239  -3.2108  -2.9681
    -0.7029  -0.6859  -0.6291  -0.6078  -0.5797  -0.5327  -0.3871  -0.2626
    -0.1254  -0.0664   0.0002   0.0591   0.4354   0.4970   0.5053   0.5536
     0.5898   0.5968   0.6377   0.6700   0.6946   0.7291   0.7402   0.7839
     0.8651   0.8721   0.9466   1.0249   1.0807   1.1193   1.1517   1.1795
     1.1981   1.2140   1.2701   1.2973   1.3175   1.3451   1.3583   1.3734
     1.3955   1.4258   1.4457   1.4720   1.5054   1.5494   1.5719   1.5897
     1.6088   1.6362   1.6600   1.6870   1.7013   1.7253   1.7389   1.7699
     1.7976   1.8385   1.8870   1.9537   1.9712   2.0174   2.0270   2.0837
     2.1027   2.1259   2.1898   2.2738   2.3866   2.4920   2.7602   2.9011

          k =-0.3750 0.1250 0.1250 (132608 PWs)   bands (ev):

   -18.6545 -18.4992 -18.4097 -18.3854 -18.3158 -18.3144 -18.3095 -18.3089
   -18.3046 -18.3037 -18.3035 -18.3020 -18.3015 -18.2993 -18.2992 -18.2970
   -18.2947 -18.2934 -18.2931 -18.2912 -18.2908 -18.2898 -18.2897 -18.2877
   -18.2833 -18.2824 -18.2770 -18.2731 -18.2629 -18.2212 -18.2180 -18.1898
   -18.1799 -18.1732 -18.1731 -18.1705 -18.1598 -18.1396 -18.0964 -18.0926
   -18.0784 -18.0738 -18.0695 -18.0522 -18.0431 -18.0341 -18.0254 -18.0185
    -9.3454  -9.2961  -9.2259  -9.1786  -9.1636  -9.1266  -9.0594  -9.0190
    -8.9742  -8.9505  -8.9283  -8.9107  -8.8913  -8.8612  -8.8426  -8.8246
    -8.7978  -8.7298  -8.7125  -8.6763  -8.6629  -8.6495  -8.5785  -8.5629
    -5.4264  -5.4185  -5.4029  -5.2739  -5.2658  -5.2553  -5.1861  -5.1796
    -5.1707  -5.1613  -5.1510  -5.1469  -5.0377  -5.0074  -5.0053  -5.0002
    -4.9945  -4.9860  -4.9678  -4.9589  -4.9455  -4.9311  -4.9258  -4.9200
    -4.3067  -4.0967  -3.8059  -3.7457  -3.5907  -3.5236  -3.2038  -2.9741
    -0.6973  -0.6833  -0.6194  -0.6111  -0.5824  -0.5339  -0.3854  -0.2703
    -0.1182  -0.0710  -0.0158   0.0520   0.4534   0.4898   0.5117   0.5545
     0.5865   0.6028   0.6354   0.6701   0.6974   0.7181   0.7529   0.7802
     0.8492   0.8845   0.9507   1.0224   1.0672   1.0970   1.1362   1.1766
     1.2169   1.2384   1.2710   1.3086   1.3141   1.3361   1.3509   1.3738
     1.4246   1.4428   1.4572   1.4946   1.5198   1.5379   1.5557   1.5818
     1.6139   1.6191   1.6417   1.6843   1.6948   1.7173   1.7306   1.7635
     1.8143   1.8387   1.9031   1.9374   1.9841   2.0011   2.0359   2.0587
     2.1035   2.1404   2.1873   2.2953   2.3655   2.5227   2.7465   2.8881

          k =-0.1250 0.3750 0.1250 (132608 PWs)   bands (ev):

   -18.6545 -18.4992 -18.4097 -18.3854 -18.3158 -18.3144 -18.3096 -18.3089
   -18.3046 -18.3036 -18.3035 -18.3020 -18.3015 -18.2993 -18.2992 -18.2970
   -18.2947 -18.2934 -18.2931 -18.2912 -18.2908 -18.2898 -18.2897 -18.2877
   -18.2833 -18.2824 -18.2770 -18.2731 -18.2629 -18.2212 -18.2180 -18.1898
   -18.1799 -18.1732 -18.1731 -18.1705 -18.1598 -18.1396 -18.0964 -18.0926
   -18.0784 -18.0738 -18.0695 -18.0522 -18.0431 -18.0341 -18.0254 -18.0185
    -9.3442  -9.2911  -9.2246  -9.1934  -9.1576  -9.1278  -9.0529  -9.0318
    -8.9822  -8.9557  -8.9310  -8.9071  -8.8804  -8.8549  -8.8397  -8.8042
    -8.7720  -8.7483  -8.7258  -8.6880  -8.6761  -8.6505  -8.5769  -8.5517
    -5.4264  -5.4186  -5.4029  -5.2737  -5.2658  -5.2556  -5.1862  -5.1795
    -5.1707  -5.1610  -5.1510  -5.1466  -5.0377  -5.0071  -5.0038  -5.0007
    -4.9947  -4.9869  -4.9681  -4.9590  -4.9456  -4.9309  -4.9261  -4.9198
    -4.3080  -4.0838  -3.8038  -3.7600  -3.5741  -3.5306  -3.2203  -2.9847
    -0.7132  -0.6328  -0.6116  -0.5878  -0.5489  -0.4498  -0.3786  -0.3245
    -0.1559  -0.0777  -0.0509   0.0717   0.4382   0.4799   0.4978   0.5329
     0.5576   0.6017   0.6242   0.6623   0.7138   0.7382   0.7589   0.7740
     0.8499   0.8824   0.9577   1.0358   1.0541   1.1076   1.1263   1.1601
     1.2119   1.2388   1.2584   1.2865   1.3110   1.3235   1.3662   1.3937
     1.4114   1.4393   1.4663   1.5007   1.5339   1.5487   1.5713   1.5875
     1.6038   1.6302   1.6589   1.6725   1.6956   1.7055   1.7534   1.7726
     1.7934   1.8320   1.8597   1.9284   1.9365   1.9721   2.0056   2.0471
     2.1092   2.1882   2.2473   2.3202   2.4093   2.4846   2.7177   2.9122

          k =-0.1250-0.3750-0.1250 (132608 PWs)   bands (ev):

   -18.6545 -18.4992 -18.4097 -18.3854 -18.3158 -18.3144 -18.3096 -18.3089
   -18.3046 -18.3036 -18.3035 -18.3020 -18.3015 -18.2993 -18.2992 -18.2970
   -18.2947 -18.2934 -18.2931 -18.2912 -18.2908 -18.2898 -18.2897 -18.2877
   -18.2833 -18.2824 -18.2770 -18.2731 -18.2629 -18.2212 -18.2180 -18.1898
   -18.1799 -18.1732 -18.1731 -18.1705 -18.1598 -18.1396 -18.0964 -18.0926
   -18.0784 -18.0738 -18.0695 -18.0522 -18.0431 -18.0341 -18.0254 -18.0185
    -9.3454  -9.2869  -9.2249  -9.2039  -9.1499  -9.1262  -9.0528  -9.0328
    -8.9773  -8.9636  -8.9340  -8.9004  -8.8804  -8.8541  -8.8427  -8.8039
    -8.7698  -8.7531  -8.7233  -8.6876  -8.6745  -8.6522  -8.5768  -8.5517
    -5.4264  -5.4186  -5.4029  -5.2737  -5.2658  -5.2556  -5.1862  -5.1795
    -5.1707  -5.1610  -5.1510  -5.1466  -5.0376  -5.0071  -5.0039  -5.0007
    -4.9948  -4.9868  -4.9680  -4.9591  -4.9456  -4.9309  -4.9261  -4.9198
    -4.3101  -4.0789  -3.8064  -3.7659  -3.5655  -3.5283  -3.2295  -2.9804
    -0.7053  -0.6593  -0.6192  -0.5794  -0.5131  -0.4534  -0.3992  -0.3302
    -0.1402  -0.0747  -0.0425   0.0625   0.4215   0.4707   0.5004   0.5345
     0.5618   0.6056   0.6320   0.6526   0.6975   0.7378   0.7582   0.7828
     0.8565   0.8826   0.9590   1.0593   1.0674   1.1117   1.1200   1.1550
     1.2013   1.2374   1.2656   1.2941   1.3107   1.3411   1.3610   1.3697
     1.4014   1.4418   1.4831   1.4948   1.5172   1.5367   1.5650   1.5964
     1.6265   1.6377   1.6585   1.6678   1.6823   1.7154   1.7539   1.7756
     1.7931   1.8319   1.8590   1.9141   1.9400   1.9758   1.9796   2.0430
     2.1147   2.1894   2.2711   2.3212   2.3867   2.5094   2.7102   2.9079

          k = 0.1250 0.3750-0.1250 (132608 PWs)   bands (ev):

   -18.6545 -18.4992 -18.4097 -18.3854 -18.3158 -18.3144 -18.3096 -18.3089
   -18.3046 -18.3036 -18.3035 -18.3020 -18.3015 -18.2993 -18.2992 -18.2970
   -18.2947 -18.2934 -18.2931 -18.2912 -18.2908 -18.2898 -18.2897 -18.2877
   -18.2833 -18.2824 -18.2770 -18.2731 -18.2629 -18.2212 -18.2180 -18.1898
   -18.1799 -18.1732 -18.1731 -18.1705 -18.1598 -18.1396 -18.0964 -18.0926
   -18.0784 -18.0738 -18.0695 -18.0522 -18.0431 -18.0341 -18.0254 -18.0185
    -9.3453  -9.2870  -9.2209  -9.2096  -9.1484  -9.1254  -9.0560  -9.0325
    -8.9831  -8.9523  -8.9295  -8.9041  -8.8798  -8.8589  -8.8441  -8.8072
    -8.7687  -8.7490  -8.7218  -8.6883  -8.6751  -8.6526  -8.5768  -8.5518
    -5.4264  -5.4186  -5.4029  -5.2737  -5.2658  -5.2556  -5.1862  -5.1795
    -5.1707  -5.1610  -5.1510  -5.1466  -5.0377  -5.0071  -5.0038  -5.0007
    -4.9948  -4.9868  -4.9681  -4.9588  -4.9457  -4.9308  -4.9261  -4.9197
    -4.3095  -4.0782  -3.8077  -3.7671  -3.5660  -3.5276  -3.2305  -2.9778
    -0.7121  -0.6477  -0.6132  -0.5797  -0.5418  -0.4437  -0.4202  -0.3199
    -0.1315  -0.0617  -0.0354   0.0690   0.4121   0.4700   0.5041   0.5354
     0.5711   0.6090   0.6314   0.6482   0.6968   0.7327   0.7587   0.7766
     0.8453   0.8838   0.9536   1.0366   1.0621   1.1197   1.1332   1.1743
     1.2090   1.2347   1.2673   1.2846   1.3109   1.3436   1.3510   1.3666
     1.3950   1.4360   1.4493   1.4927   1.5454   1.5599   1.5769   1.5929
     1.6121   1.6255   1.6559   1.6782   1.6947   1.7304   1.7456   1.7665
     1.7965   1.8351   1.8648   1.9117   1.9456   1.9650   1.9907   2.0391
     2.1214   2.1763   2.2444   2.3298   2.4162   2.4879   2.7142   2.9231

          k = 0.1250-0.3750 0.1250 (132608 PWs)   bands (ev):

   -18.6545 -18.4992 -18.4097 -18.3854 -18.3158 -18.3144 -18.3096 -18.3089
   -18.3046 -18.3036 -18.3035 -18.3020 -18.3015 -18.2993 -18.2992 -18.2970
   -18.2947 -18.2934 -18.2931 -18.2912 -18.2908 -18.2898 -18.2897 -18.2877
   -18.2833 -18.2824 -18.2770 -18.2731 -18.2629 -18.2212 -18.2180 -18.1898
   -18.1799 -18.1732 -18.1731 -18.1705 -18.1598 -18.1396 -18.0964 -18.0926
   -18.0784 -18.0738 -18.0695 -18.0522 -18.0431 -18.0341 -18.0254 -18.0185
    -9.3442  -9.2915  -9.2202  -9.1996  -9.1544  -9.1299  -9.0526  -9.0311
    -8.9787  -8.9592  -8.9323  -8.9004  -8.8833  -8.8572  -8.8421  -8.8072
    -8.7686  -8.7453  -8.7245  -8.6891  -8.6765  -8.6519  -8.5766  -8.5515
    -5.4264  -5.4186  -5.4029  -5.2738  -5.2658  -5.2555  -5.1862  -5.1796
    -5.1707  -5.1610  -5.1510  -5.1466  -5.0377  -5.0071  -5.0039  -5.0007
    -4.9948  -4.9869  -4.9681  -4.9588  -4.9457  -4.9309  -4.9261  -4.9199
    -4.3080  -4.0837  -3.8063  -3.7576  -3.5732  -3.5303  -3.2226  -2.9836
    -0.6971  -0.6551  -0.6207  -0.5732  -0.5107  -0.4622  -0.4265  -0.3184
    -0.1439  -0.0738  -0.0487   0.0697   0.4301   0.4815   0.5060   0.5177
     0.5648   0.6138   0.6263   0.6691   0.6992   0.7256   0.7545   0.7855
     0.8458   0.8848   0.9519   1.0400   1.0797   1.0955   1.1410   1.1710
     1.1888   1.2498   1.2645   1.2777   1.3015   1.3387   1.3625   1.3791
     1.4241   1.4291   1.4646   1.4993   1.5247   1.5416   1.5696   1.5961
     1.6129   1.6391   1.6657   1.6784   1.7023   1.7217   1.7441   1.7490
     1.8028   1.8311   1.8651   1.9003   1.9303   1.9719   2.0039   2.0260
     2.1232   2.1860   2.2594   2.3215   2.4054   2.5127   2.6960   2.9057

          k =-0.1250-0.3750 0.3750 (132616 PWs)   bands (ev):

   -18.6545 -18.4992 -18.4097 -18.3854 -18.3158 -18.3144 -18.3096 -18.3089
   -18.3046 -18.3036 -18.3035 -18.3020 -18.3015 -18.2993 -18.2992 -18.2970
   -18.2947 -18.2934 -18.2931 -18.2912 -18.2908 -18.2898 -18.2897 -18.2877
   -18.2833 -18.2824 -18.2770 -18.2731 -18.2629 -18.2212 -18.2180 -18.1898
   -18.1799 -18.1732 -18.1731 -18.1705 -18.1598 -18.1396 -18.0964 -18.0926
   -18.0784 -18.0738 -18.0695 -18.0522 -18.0431 -18.0341 -18.0254 -18.0185
    -9.3194  -9.2768  -9.2459  -9.2184  -9.1542  -9.1142  -9.0878  -9.0302
    -9.0111  -8.9468  -8.9391  -8.8848  -8.8698  -8.8422  -8.8350  -8.7910
    -8.7650  -8.7515  -8.7233  -8.6911  -8.6710  -8.6558  -8.5873  -8.5563
    -5.4264  -5.4186  -5.4028  -5.2737  -5.2657  -5.2556  -5.1862  -5.1795
    -5.1707  -5.1610  -5.1509  -5.1467  -5.0376  -5.0071  -5.0038  -5.0009
    -4.9950  -4.9869  -4.9684  -4.9587  -4.9457  -4.9307  -4.9262  -4.9198
    -4.1840  -3.9843  -3.9429  -3.7440  -3.6320  -3.4262  -3.3937  -3.1723
    -0.6926  -0.6047  -0.5577  -0.5118  -0.3322  -0.2441  -0.2016  -0.1176
    -0.0435   0.0508   0.0978   0.1772   0.3181   0.4282   0.4779   0.4942
     0.5305   0.5581   0.6126   0.6361   0.6454   0.6776   0.7082   0.7499
     0.7784   0.8336   0.8785   0.9061   0.9398   0.9864   0.9933   1.0418
     1.1529   1.2067   1.2239   1.2617   1.3023   1.3142   1.3354   1.3733
     1.3993   1.4145   1.4385   1.4809   1.5343   1.5543   1.5789   1.6124
     1.6279   1.6517   1.7036   1.7198   1.7456   1.7665   1.7796   1.7972
     1.8273   1.8548   1.8845   1.9122   1.9200   1.9489   1.9753   2.0035
     2.0587   2.1347   2.1433   2.2279   2.3297   2.3951   2.5091   2.6950

          k =-0.1250 0.3750-0.3750 (132616 PWs)   bands (ev):

   -18.6545 -18.4992 -18.4097 -18.3854 -18.3158 -18.3144 -18.3096 -18.3089
   -18.3046 -18.3036 -18.3035 -18.3020 -18.3015 -18.2993 -18.2992 -18.2970
   -18.2947 -18.2934 -18.2931 -18.2912 -18.2908 -18.2898 -18.2897 -18.2877
   -18.2833 -18.2824 -18.2770 -18.2731 -18.2629 -18.2212 -18.2180 -18.1898
   -18.1799 -18.1732 -18.1731 -18.1705 -18.1598 -18.1396 -18.0964 -18.0926
   -18.0784 -18.0738 -18.0695 -18.0522 -18.0431 -18.0341 -18.0254 -18.0185
    -9.3187  -9.2795  -9.2450  -9.2174  -9.1506  -9.1182  -9.0872  -9.0285
    -9.0116  -8.9526  -8.9364  -8.8872  -8.8677  -8.8418  -8.8312  -8.7934
    -8.7660  -8.7486  -8.7244  -8.6915  -8.6704  -8.6571  -8.5872  -8.5560
    -5.4264  -5.4186  -5.4028  -5.2737  -5.2657  -5.2556  -5.1862  -5.1796
    -5.1707  -5.1610  -5.1509  -5.1467  -5.0376  -5.0070  -5.0039  -5.0009
    -4.9950  -4.9870  -4.9684  -4.9587  -4.9456  -4.9307  -4.9262  -4.9199
    -4.1830  -3.9832  -3.9484  -3.7449  -3.6259  -3.4217  -3.3956  -3.1776
    -0.6848  -0.5975  -0.5671  -0.4949  -0.3346  -0.2579  -0.1990  -0.1281
    -0.0444   0.0485   0.0861   0.1551   0.3338   0.4279   0.4704   0.5064
     0.5478   0.5626   0.5964   0.6185   0.6556   0.6856   0.7260   0.7437
     0.7927   0.8353   0.8861   0.8977   0.9566   0.9877   0.9956   1.0372
     1.1178   1.1956   1.2423   1.2617   1.2733   1.3230   1.3382   1.3705
     1.4105   1.4413   1.4575   1.4889   1.5035   1.5548   1.5808   1.5895
     1.6435   1.6619   1.6939   1.7224   1.7463   1.7548   1.7807   1.7920
     1.8313   1.8604   1.8746   1.9046   1.9182   1.9504   1.9673   2.0043
     2.0662   2.1440   2.1601   2.2350   2.3187   2.4007   2.4990   2.6756

          k = 0.1250-0.3750-0.3750 (132616 PWs)   bands (ev):

   -18.6545 -18.4992 -18.4097 -18.3854 -18.3158 -18.3144 -18.3096 -18.3089
   -18.3046 -18.3036 -18.3035 -18.3020 -18.3015 -18.2993 -18.2992 -18.2970
   -18.2947 -18.2934 -18.2931 -18.2912 -18.2908 -18.2898 -18.2897 -18.2877
   -18.2833 -18.2824 -18.2770 -18.2731 -18.2629 -18.2212 -18.2180 -18.1898
   -18.1799 -18.1732 -18.1731 -18.1705 -18.1598 -18.1396 -18.0964 -18.0926
   -18.0784 -18.0738 -18.0695 -18.0522 -18.0431 -18.0341 -18.0254 -18.0185
    -9.3188  -9.2771  -9.2521  -9.2095  -9.1573  -9.1124  -9.0876  -9.0311
    -9.0123  -8.9504  -8.9374  -8.8902  -8.8657  -8.8428  -8.8260  -8.7881
    -8.7714  -8.7524  -8.7261  -8.6903  -8.6706  -8.6547  -8.5875  -8.5562
    -5.4264  -5.4186  -5.4028  -5.2737  -5.2657  -5.2556  -5.1862  -5.1795
    -5.1706  -5.1611  -5.1509  -5.1467  -5.0376  -5.0070  -5.0038  -5.0010
    -4.9950  -4.9870  -4.9683  -4.9589  -4.9455  -4.9307  -4.9262  -4.9198
    -4.1822  -3.9959  -3.9328  -3.7465  -3.6326  -3.4197  -3.3906  -3.1799
    -0.6959  -0.5854  -0.5700  -0.5045  -0.3410  -0.2171  -0.1841  -0.1182
    -0.0609  -0.0024   0.0746   0.1726   0.3675   0.4476   0.4710   0.4965
     0.5447   0.5526   0.5874   0.6229   0.6385   0.6941   0.7170   0.7222
     0.7941   0.8387   0.8840   0.9227   0.9603   0.9714   1.0039   1.0376
     1.1296   1.1913   1.2345   1.2479   1.2889   1.3157   1.3337   1.3746
     1.4191   1.4425   1.4538   1.4803   1.5036   1.5654   1.5814   1.5922
     1.6302   1.6589   1.6932   1.7091   1.7341   1.7660   1.7757   1.8088
     1.8316   1.8550   1.8835   1.9052   1.9441   1.9633   1.9861   2.0087
     2.0483   2.1164   2.1646   2.2187   2.3119   2.4028   2.5085   2.6851

          k = 0.3750 0.1250-0.3750 (132616 PWs)   bands (ev):

   -18.6545 -18.4992 -18.4097 -18.3854 -18.3158 -18.3144 -18.3095 -18.3089
   -18.3046 -18.3036 -18.3035 -18.3020 -18.3015 -18.2993 -18.2992 -18.2970
   -18.2947 -18.2934 -18.2931 -18.2912 -18.2908 -18.2898 -18.2897 -18.2877
   -18.2833 -18.2824 -18.2770 -18.2731 -18.2629 -18.2212 -18.2180 -18.1898
   -18.1799 -18.1732 -18.1731 -18.1705 -18.1598 -18.1396 -18.0964 -18.0926
   -18.0784 -18.0738 -18.0695 -18.0522 -18.0431 -18.0341 -18.0254 -18.0185
    -9.3205  -9.2807  -9.2523  -9.2063  -9.1553  -9.1176  -9.0869  -9.0185
    -8.9946  -8.9444  -8.9220  -8.9077  -8.8967  -8.8561  -8.8493  -8.7872
    -8.7714  -8.7318  -8.7091  -8.6797  -8.6718  -8.6559  -8.5871  -8.5652
    -5.4264  -5.4185  -5.4028  -5.2738  -5.2656  -5.2554  -5.1862  -5.1796
    -5.1707  -5.1614  -5.1509  -5.1470  -5.0375  -5.0075  -5.0051  -4.9999
    -4.9946  -4.9858  -4.9682  -4.9589  -4.9458  -4.9309  -4.9257  -4.9200
    -4.1837  -3.9957  -3.9438  -3.7524  -3.6256  -3.4326  -3.3653  -3.1645
    -0.6550  -0.6355  -0.5938  -0.5738  -0.3899  -0.2586  -0.1729  -0.1281
    -0.0543   0.0475   0.1322   0.2074   0.3748   0.3931   0.4846   0.5205
     0.5480   0.5774   0.6118   0.6218   0.6653   0.6808   0.7017   0.7333
     0.7761   0.8382   0.8573   0.9161   0.9543   0.9829   1.0461   1.0919
     1.1606   1.2029   1.2372   1.2601   1.2729   1.2875   1.3283   1.3614
     1.3767   1.4120   1.4557   1.4852   1.5341   1.5565   1.5974   1.6162
     1.6422   1.6661   1.6808   1.7045   1.7318   1.7435   1.7721   1.8104
     1.8403   1.8662   1.8987   1.9229   1.9609   1.9751   2.0035   2.0118
     2.0486   2.0765   2.1174   2.1715   2.2854   2.4450   2.5110   2.6718

          k =-0.3750-0.1250-0.3750 (132616 PWs)   bands (ev):

   -18.6545 -18.4992 -18.4097 -18.3854 -18.3158 -18.3144 -18.3095 -18.3089
   -18.3046 -18.3036 -18.3035 -18.3020 -18.3015 -18.2993 -18.2992 -18.2970
   -18.2947 -18.2934 -18.2931 -18.2912 -18.2908 -18.2898 -18.2897 -18.2877
   -18.2833 -18.2824 -18.2770 -18.2731 -18.2629 -18.2212 -18.2180 -18.1898
   -18.1799 -18.1732 -18.1731 -18.1705 -18.1598 -18.1396 -18.0964 -18.0926
   -18.0784 -18.0738 -18.0695 -18.0522 -18.0431 -18.0341 -18.0254 -18.0185
    -9.3197  -9.2833  -9.2510  -9.2077  -9.1507  -9.1128  -9.0933  -9.0218
    -8.9932  -8.9468  -8.9238  -8.9046  -8.8948  -8.8625  -8.8408  -8.7842
    -8.7725  -8.7362  -8.7134  -8.6740  -8.6686  -8.6603  -8.5872  -8.5649
    -5.4264  -5.4185  -5.4028  -5.2738  -5.2656  -5.2554  -5.1862  -5.1796
    -5.1707  -5.1614  -5.1509  -5.1471  -5.0374  -5.0074  -5.0052  -4.9999
    -4.9946  -4.9858  -4.9681  -4.9592  -4.9457  -4.9310  -4.9256  -4.9200
    -4.1849  -4.0002  -3.9359  -3.7576  -3.6239  -3.4140  -3.3807  -3.1671
    -0.6571  -0.6306  -0.6074  -0.5652  -0.3713  -0.2447  -0.1874  -0.1053
    -0.0168   0.0397   0.0690   0.1093   0.3890   0.4538   0.4783   0.5317
     0.5481   0.5887   0.6129   0.6436   0.6613   0.6798   0.7065   0.7369
     0.7792   0.8260   0.8770   0.9046   0.9365   0.9765   1.0369   1.1268
     1.1589   1.1961   1.2101   1.2396   1.2869   1.3003   1.3406   1.3467
     1.3970   1.4357   1.4479   1.5012   1.5310   1.5576   1.5821   1.6136
     1.6324   1.6597   1.6752   1.7066   1.7266   1.7455   1.7704   1.7912
     1.8344   1.8870   1.9019   1.9296   1.9382   1.9546   2.0146   2.0280
     2.0440   2.0934   2.1243   2.1453   2.3121   2.4523   2.5068   2.6555

          k = 0.3750-0.1250 0.3750 (132616 PWs)   bands (ev):

   -18.6545 -18.4992 -18.4097 -18.3854 -18.3158 -18.3144 -18.3095 -18.3089
   -18.3046 -18.3036 -18.3035 -18.3020 -18.3015 -18.2993 -18.2992 -18.2970
   -18.2947 -18.2934 -18.2931 -18.2912 -18.2908 -18.2898 -18.2897 -18.2877
   -18.2833 -18.2824 -18.2770 -18.2731 -18.2629 -18.2212 -18.2180 -18.1898
   -18.1799 -18.1732 -18.1731 -18.1705 -18.1598 -18.1396 -18.0964 -18.0926
   -18.0784 -18.0738 -18.0695 -18.0522 -18.0431 -18.0341 -18.0254 -18.0185
    -9.3188  -9.2856  -9.2497  -9.2070  -9.1503  -9.1167  -9.0915  -9.0186
    -8.9955  -8.9446  -8.9221  -8.9095  -8.8945  -8.8570  -8.8466  -8.7910
    -8.7658  -8.7346  -8.7103  -8.6772  -8.6673  -8.6620  -8.5875  -8.5644
    -5.4264  -5.4185  -5.4028  -5.2738  -5.2657  -5.2553  -5.1862  -5.1797
    -5.1707  -5.1614  -5.1509  -5.1470  -5.0374  -5.0074  -5.0051  -4.9999
    -4.9946  -4.9860  -4.9682  -4.9589  -4.9458  -4.9309  -4.9256  -4.9202
    -4.1825  -4.0011  -3.9386  -3.7598  -3.6210  -3.4113  -3.3808  -3.1692
    -0.6486  -0.6218  -0.5992  -0.5803  -0.3812  -0.2488  -0.2036  -0.0983
    -0.0183   0.0367   0.0751   0.1146   0.3892   0.4596   0.4872   0.5351
     0.5459   0.5849   0.6140   0.6451   0.6688   0.6884   0.6982   0.7361
     0.7743   0.8182   0.8768   0.9024   0.9513   0.9806   1.0196   1.1228
     1.1545   1.1910   1.2169   1.2528   1.2783   1.3010   1.3368   1.3480
     1.3811   1.4359   1.4649   1.4879   1.5236   1.5539   1.5908   1.6148
     1.6351   1.6656   1.6828   1.7019   1.7217   1.7409   1.7873   1.7989
     1.8415   1.8741   1.9051   1.9141   1.9406   1.9724   1.9906   2.0234
     2.0564   2.1022   2.1301   2.1603   2.2973   2.4236   2.5240   2.6488

          k =-0.3750 0.1250 0.3750 (132616 PWs)   bands (ev):

   -18.6545 -18.4992 -18.4097 -18.3854 -18.3158 -18.3144 -18.3095 -18.3089
   -18.3046 -18.3036 -18.3035 -18.3020 -18.3015 -18.2993 -18.2992 -18.2970
   -18.2947 -18.2934 -18.2931 -18.2912 -18.2908 -18.2898 -18.2897 -18.2877
   -18.2833 -18.2824 -18.2770 -18.2731 -18.2629 -18.2212 -18.2180 -18.1898
   -18.1799 -18.1732 -18.1731 -18.1705 -18.1598 -18.1396 -18.0964 -18.0926
   -18.0784 -18.0738 -18.0695 -18.0522 -18.0431 -18.0341 -18.0254 -18.0185
    -9.3195  -9.2826  -9.2542  -9.2037  -9.1516  -9.1168  -9.0896  -9.0198
    -8.9977  -8.9452  -8.9222  -8.9081  -8.8945  -8.8603  -8.8386  -8.7846
    -8.7770  -8.7327  -8.7121  -8.6773  -8.6726  -8.6550  -8.5869  -8.5653
    -5.4264  -5.4185  -5.4028  -5.2738  -5.2656  -5.2554  -5.1862  -5.1796
    -5.1707  -5.1614  -5.1509  -5.1470  -5.0375  -5.0074  -5.0051  -5.0000
    -4.9946  -4.9860  -4.9681  -4.9591  -4.9456  -4.9309  -4.9257  -4.9201
    -4.1820  -3.9986  -3.9450  -3.7561  -3.6177  -3.4285  -3.3662  -3.1703
    -0.6532  -0.6226  -0.5980  -0.5764  -0.3839  -0.2516  -0.1892  -0.1299
    -0.0534   0.0388   0.1250   0.2029   0.3751   0.4032   0.4895   0.5334
     0.5437   0.5704   0.6003   0.6156   0.6692   0.6778   0.7122   0.7179
     0.7778   0.8512   0.8672   0.9091   0.9660   0.9899   1.0297   1.0942
     1.1624   1.1979   1.2253   1.2527   1.2823   1.2876   1.3326   1.3525
     1.3852   1.4569   1.4688   1.4998   1.5323   1.5474   1.5794   1.6112
     1.6267   1.6688   1.6775   1.7022   1.7181   1.7481   1.7678   1.8039
     1.8368   1.8586   1.8935   1.9392   1.9649   1.9831   1.9967   2.0096
     2.0374   2.0787   2.1348   2.1611   2.3099   2.4579   2.4966   2.6521

          k = 0.3750-0.3750 0.1250 (132616 PWs)   bands (ev):

   -18.6545 -18.4992 -18.4097 -18.3854 -18.3158 -18.3144 -18.3095 -18.3089
   -18.3046 -18.3036 -18.3035 -18.3020 -18.3015 -18.2993 -18.2992 -18.2970
   -18.2947 -18.2934 -18.2931 -18.2912 -18.2908 -18.2898 -18.2897 -18.2877
   -18.2833 -18.2824 -18.2770 -18.2731 -18.2629 -18.2212 -18.2180 -18.1898
   -18.1799 -18.1732 -18.1731 -18.1705 -18.1598 -18.1396 -18.0964 -18.0926
   -18.0784 -18.0738 -18.0695 -18.0522 -18.0431 -18.0341 -18.0254 -18.0185
    -9.3152  -9.2915  -9.2231  -9.2006  -9.1788  -9.1530  -9.0698  -9.0207
    -8.9882  -8.9497  -8.9306  -8.8983  -8.8712  -8.8509  -8.8403  -8.8054
    -8.7628  -8.7352  -8.7244  -8.6834  -8.6716  -8.6592  -8.5800  -8.5643
    -5.4264  -5.4185  -5.4029  -5.2738  -5.2659  -5.2554  -5.1861  -5.1795
    -5.1708  -5.1611  -5.1510  -5.1465  -5.0377  -5.0071  -5.0041  -5.0006
    -4.9946  -4.9868  -4.9679  -4.9589  -4.9459  -4.9313  -4.9258  -4.9199
    -4.1743  -4.0189  -3.8759  -3.7307  -3.6596  -3.5236  -3.3283  -3.1857
    -0.6143  -0.5694  -0.5429  -0.4907  -0.3211  -0.2881  -0.2113  -0.1342
    -0.0425  -0.0053   0.0516   0.1236   0.3421   0.4392   0.4867   0.5097
     0.5418   0.5785   0.6017   0.6167   0.6462   0.6852   0.6929   0.7054
     0.7575   0.8543   0.8726   0.9405   0.9944   1.0146   1.0450   1.1014
     1.1488   1.1903   1.2107   1.2492   1.2716   1.3052   1.3194   1.3717
     1.3898   1.4370   1.4544   1.4923   1.5388   1.5713   1.5988   1.6374
     1.6581   1.6734   1.6923   1.7076   1.7355   1.7433   1.7747   1.7829
     1.8156   1.8385   1.8713   1.8878   1.9281   1.9550   1.9906   2.0261
     2.0472   2.0697   2.1216   2.1998   2.2269   2.4039   2.5502   2.6251

          k =-0.3750-0.3750-0.1250 (132616 PWs)   bands (ev):

   -18.6545 -18.4992 -18.4097 -18.3854 -18.3158 -18.3144 -18.3095 -18.3089
   -18.3046 -18.3036 -18.3035 -18.3020 -18.3015 -18.2993 -18.2992 -18.2970
   -18.2947 -18.2934 -18.2931 -18.2912 -18.2908 -18.2898 -18.2897 -18.2877
   -18.2833 -18.2824 -18.2770 -18.2731 -18.2629 -18.2212 -18.2180 -18.1898
   -18.1799 -18.1732 -18.1731 -18.1705 -18.1598 -18.1396 -18.0964 -18.0926
   -18.0784 -18.0738 -18.0695 -18.0522 -18.0431 -18.0341 -18.0254 -18.0185
    -9.3205  -9.2741  -9.2475  -9.1952  -9.1695  -9.1525  -9.0702  -9.0247
    -8.9883  -8.9508  -8.9314  -8.8961  -8.8708  -8.8460  -8.8420  -8.8037
    -8.7616  -8.7468  -8.7220  -8.6791  -8.6694  -8.6615  -8.5796  -8.5648
    -5.4264  -5.4185  -5.4029  -5.2738  -5.2659  -5.2555  -5.1861  -5.1794
    -5.1707  -5.1611  -5.1510  -5.1466  -5.0376  -5.0072  -5.0041  -5.0007
    -4.9946  -4.9867  -4.9678  -4.9592  -4.9457  -4.9313  -4.9258  -4.9198
    -4.1824  -3.9734  -3.9291  -3.7099  -3.6738  -3.4899  -3.3659  -3.1728
    -0.6143  -0.5788  -0.5454  -0.4845  -0.3476  -0.2614  -0.1959  -0.1250
    -0.0851   0.0194   0.0865   0.1247   0.3363   0.4068   0.4482   0.5086
     0.5538   0.5710   0.5927   0.6213   0.6443   0.6688   0.7140   0.7386
     0.7571   0.8396   0.8970   0.9434   0.9757   1.0259   1.0501   1.0984
     1.1485   1.1969   1.2143   1.2521   1.2668   1.2855   1.3318   1.3696
     1.4015   1.4330   1.4651   1.4979   1.5339   1.5689   1.5856   1.6401
     1.6528   1.6620   1.6963   1.7031   1.7248   1.7478   1.7618   1.7982
     1.8134   1.8499   1.8758   1.8986   1.9308   1.9527   1.9689   2.0138
     2.0490   2.0830   2.1139   2.1828   2.2640   2.4058   2.5514   2.6209

          k = 0.3750 0.3750-0.1250 (132616 PWs)   bands (ev):

   -18.6545 -18.4992 -18.4097 -18.3854 -18.3158 -18.3144 -18.3095 -18.3089
   -18.3046 -18.3036 -18.3035 -18.3020 -18.3015 -18.2993 -18.2992 -18.2970
   -18.2947 -18.2934 -18.2931 -18.2912 -18.2908 -18.2898 -18.2897 -18.2877
   -18.2833 -18.2824 -18.2770 -18.2731 -18.2629 -18.2212 -18.2180 -18.1898
   -18.1799 -18.1732 -18.1731 -18.1705 -18.1598 -18.1396 -18.0964 -18.0926
   -18.0784 -18.0738 -18.0695 -18.0522 -18.0431 -18.0341 -18.0254 -18.0185
    -9.3204  -9.2747  -9.2449  -9.1980  -9.1716  -9.1506  -9.0719  -9.0208
    -8.9917  -8.9448  -8.9291  -8.9004  -8.8684  -8.8530  -8.8405  -8.8068
    -8.7626  -8.7405  -8.7205  -8.6817  -8.6688  -8.6617  -8.5800  -8.5648
    -5.4264  -5.4185  -5.4029  -5.2738  -5.2658  -5.2555  -5.1862  -5.1794
    -5.1707  -5.1610  -5.1510  -5.1465  -5.0377  -5.0072  -5.0040  -5.0006
    -4.9946  -4.9867  -4.9679  -4.9589  -4.9459  -4.9313  -4.9258  -4.9198
    -4.1812  -3.9740  -3.9275  -3.7097  -3.6790  -3.4898  -3.3657  -3.1696
    -0.6153  -0.5759  -0.5393  -0.5047  -0.3525  -0.2681  -0.1953  -0.1198
    -0.0884   0.0419   0.0940   0.1461   0.3356   0.3874   0.4548   0.5091
     0.5633   0.5696   0.5912   0.6223   0.6451   0.6736   0.6940   0.7330
     0.7576   0.8320   0.8919   0.9487   0.9655   1.0152   1.0616   1.0925
     1.1566   1.1966   1.2079   1.2606   1.2652   1.2995   1.3268   1.3628
     1.3864   1.4219   1.4391   1.5122   1.5310   1.5820   1.5988   1.6384
     1.6592   1.6768   1.6995   1.7121   1.7239   1.7493   1.7595   1.7831
     1.8208   1.8600   1.8693   1.9067   1.9265   1.9630   1.9752   2.0149
     2.0445   2.0828   2.1156   2.1859   2.2374   2.3690   2.5591   2.6553

          k =-0.3750 0.3750 0.1250 (132616 PWs)   bands (ev):

   -18.6545 -18.4992 -18.4097 -18.3854 -18.3158 -18.3144 -18.3095 -18.3089
   -18.3046 -18.3036 -18.3035 -18.3020 -18.3015 -18.2993 -18.2992 -18.2970
   -18.2947 -18.2934 -18.2931 -18.2912 -18.2908 -18.2898 -18.2897 -18.2877
   -18.2833 -18.2824 -18.2770 -18.2731 -18.2629 -18.2212 -18.2180 -18.1898
   -18.1799 -18.1732 -18.1731 -18.1705 -18.1598 -18.1396 -18.0964 -18.0926
   -18.0784 -18.0738 -18.0695 -18.0522 -18.0431 -18.0341 -18.0254 -18.0185
    -9.3150  -9.2913  -9.2282  -9.1986  -9.1702  -9.1575  -9.0700  -9.0224
    -8.9923  -8.9453  -8.9303  -8.9003  -8.8717  -8.8495  -8.8367  -8.8030
    -8.7651  -8.7405  -8.7250  -8.6805  -8.6729  -8.6572  -8.5798  -8.5648
    -5.4264  -5.4185  -5.4029  -5.2738  -5.2659  -5.2554  -5.1861  -5.1795
    -5.1707  -5.1611  -5.1510  -5.1466  -5.0377  -5.0071  -5.0040  -5.0007
    -4.9945  -4.9868  -4.9679  -4.9591  -4.9458  -4.9313  -4.9258  -4.9198
    -4.1737  -4.0199  -3.8747  -3.7368  -3.6542  -3.5234  -3.3282  -3.1863
    -0.6174  -0.5604  -0.5500  -0.5049  -0.3102  -0.2749  -0.2096  -0.1436
    -0.0443   0.0009   0.0495   0.1342   0.3483   0.4487   0.4790   0.4965
     0.5444   0.5758   0.5810   0.6025   0.6555   0.6794   0.7037   0.7111
     0.7589   0.8585   0.8775   0.9449   0.9681   1.0136   1.0434   1.0907
     1.1433   1.2022   1.2271   1.2465   1.2722   1.3075   1.3384   1.3548
     1.4057   1.4200   1.4557   1.5131   1.5517   1.5699   1.5932   1.6262
     1.6512   1.6650   1.6896   1.7048   1.7185   1.7379   1.7821   1.7931
     1.8306   1.8446   1.8621   1.9069   1.9369   1.9429   1.9811   2.0194
     2.0374   2.0927   2.1224   2.1941   2.2212   2.4020   2.5464   2.6382

          k =-0.3750-0.3750 0.3750 (132612 PWs)   bands (ev):

   -18.6545 -18.4992 -18.4097 -18.3854 -18.3158 -18.3144 -18.3095 -18.3089
   -18.3046 -18.3036 -18.3035 -18.3020 -18.3015 -18.2993 -18.2992 -18.2970
   -18.2947 -18.2934 -18.2931 -18.2912 -18.2908 -18.2898 -18.2897 -18.2877
   -18.2833 -18.2824 -18.2770 -18.2731 -18.2629 -18.2212 -18.2180 -18.1898
   -18.1799 -18.1732 -18.1731 -18.1705 -18.1598 -18.1396 -18.0964 -18.0926
   -18.0784 -18.0738 -18.0695 -18.0522 -18.0431 -18.0341 -18.0254 -18.0185
    -9.2978  -9.2633  -9.2469  -9.2078  -9.1799  -9.1478  -9.1092  -9.0498
    -9.0035  -8.9330  -8.9199  -8.8851  -8.8632  -8.8397  -8.8288  -8.7921
    -8.7582  -8.7478  -8.7197  -8.6821  -8.6724  -8.6629  -8.5888  -8.5683
    -5.4264  -5.4185  -5.4028  -5.2737  -5.2657  -5.2555  -5.1863  -5.1795
    -5.1707  -5.1611  -5.1510  -5.1467  -5.0375  -5.0071  -5.0039  -5.0008
    -4.9949  -4.9867  -4.9681  -4.9587  -4.9457  -4.9310  -4.9258  -4.9198
    -4.0586  -3.8782  -3.8389  -3.7879  -3.6567  -3.5895  -3.5383  -3.3543
    -0.4464  -0.3875  -0.3439  -0.2984  -0.2632  -0.1921  -0.1222  -0.0405
    -0.0179   0.0920   0.1449   0.2345   0.3056   0.3362   0.4142   0.4623
     0.4846   0.5203   0.5552   0.5846   0.5931   0.6233   0.6568   0.6809
     0.7879   0.8239   0.8679   0.9167   0.9407   0.9717   0.9919   1.0436
     1.0741   1.1201   1.1502   1.1830   1.2076   1.2379   1.2533   1.2741
     1.3006   1.4031   1.4336   1.5190   1.5592   1.5919   1.6332   1.6692
     1.6952   1.7167   1.7248   1.7544   1.7744   1.7823   1.7906   1.8154
     1.8439   1.8700   1.8815   1.8949   1.9312   1.9569   1.9636   1.9977
     2.0062   2.0389   2.0570   2.0924   2.1335   2.1906   2.2901   2.4028

          k =-0.3750 0.3750-0.3750 (132612 PWs)   bands (ev):

   -18.6545 -18.4992 -18.4097 -18.3854 -18.3158 -18.3144 -18.3095 -18.3089
   -18.3046 -18.3036 -18.3035 -18.3020 -18.3015 -18.2993 -18.2992 -18.2970
   -18.2947 -18.2934 -18.2931 -18.2912 -18.2908 -18.2898 -18.2897 -18.2877
   -18.2833 -18.2824 -18.2770 -18.2731 -18.2629 -18.2212 -18.2180 -18.1898
   -18.1799 -18.1732 -18.1731 -18.1705 -18.1598 -18.1396 -18.0964 -18.0926
   -18.0784 -18.0738 -18.0695 -18.0522 -18.0431 -18.0341 -18.0254 -18.0185
    -9.2944  -9.2742  -9.2377  -9.2122  -9.1707  -9.1532  -9.1104  -9.0496
    -9.0027  -8.9359  -8.9196  -8.8862  -8.8625  -8.8395  -8.8250  -8.7939
    -8.7599  -8.7444  -8.7206  -8.6826  -8.6718  -8.6643  -8.5888  -8.5679
    -5.4264  -5.4185  -5.4028  -5.2737  -5.2657  -5.2555  -5.1862  -5.1795
    -5.1707  -5.1611  -5.1510  -5.1467  -5.0375  -5.0070  -5.0039  -5.0008
    -4.9948  -4.9868  -4.9681  -4.9587  -4.9457  -4.9310  -4.9257  -4.9199
    -4.0526  -3.9061  -3.8411  -3.7423  -3.6890  -3.5881  -3.5157  -3.3681
    -0.4294  -0.3582  -0.3403  -0.3085  -0.2692  -0.1859  -0.1513  -0.0507
    -0.0092   0.0593   0.1345   0.1730   0.3319   0.3747   0.4141   0.4681
     0.5145   0.5323   0.5393   0.5747   0.6058   0.6389   0.6554   0.6688
     0.8046   0.8253   0.8724   0.9098   0.9496   0.9751   0.9976   1.0362
     1.0629   1.0955   1.1496   1.1844   1.1912   1.2325   1.2568   1.3011
     1.3239   1.3858   1.4568   1.5012   1.5467   1.6070   1.6225   1.6614
     1.6906   1.7211   1.7314   1.7436   1.7733   1.7824   1.7940   1.8069
     1.8469   1.8736   1.8797   1.8926   1.9110   1.9382   1.9896   1.9916
     2.0102   2.0467   2.0585   2.1076   2.1465   2.2189   2.2933   2.3495

          k = 0.3750-0.3750-0.3750 (132612 PWs)   bands (ev):

   -18.6545 -18.4992 -18.4097 -18.3854 -18.3158 -18.3144 -18.3095 -18.3089
   -18.3046 -18.3036 -18.3035 -18.3020 -18.3015 -18.2993 -18.2992 -18.2970
   -18.2947 -18.2934 -18.2931 -18.2912 -18.2908 -18.2898 -18.2897 -18.2877
   -18.2833 -18.2824 -18.2770 -18.2731 -18.2629 -18.2212 -18.2180 -18.1898
   -18.1799 -18.1732 -18.1731 -18.1705 -18.1598 -18.1396 -18.0964 -18.0926
   -18.0784 -18.0738 -18.0695 -18.0522 -18.0431 -18.0341 -18.0254 -18.0185
    -9.2938  -9.2719  -9.2479  -9.2012  -9.1740  -9.1524  -9.1098  -9.0521
    -9.0045  -8.9336  -8.9192  -8.8887  -8.8620  -8.8396  -8.8210  -8.7883
    -8.7641  -8.7495  -8.7229  -8.6794  -8.6741  -8.6613  -8.5886  -8.5684
    -5.4264  -5.4185  -5.4028  -5.2737  -5.2657  -5.2555  -5.1862  -5.1795
    -5.1707  -5.1612  -5.1510  -5.1467  -5.0375  -5.0070  -5.0038  -5.0009
    -4.9948  -4.9868  -4.9681  -4.9589  -4.9456  -4.9311  -4.9257  -4.9199
    -4.0500  -3.9158  -3.8306  -3.7446  -3.6954  -3.5809  -3.5157  -3.3698
    -0.4611  -0.3539  -0.3321  -0.2991  -0.2581  -0.1700  -0.1355  -0.0646
    -0.0356   0.0690   0.1139   0.2204   0.3215   0.3981   0.4281   0.4480
     0.4854   0.5159   0.5562   0.5656   0.5920   0.6109   0.6611   0.6842
     0.8005   0.8234   0.8856   0.9186   0.9384   0.9695   1.0161   1.0388
     1.0633   1.0763   1.1643   1.1761   1.1971   1.2338   1.2644   1.2925
     1.3277   1.3911   1.4663   1.4935   1.5688   1.5911   1.6341   1.6547
     1.6843   1.7011   1.7272   1.7425   1.7649   1.7928   1.8060   1.8255
     1.8338   1.8505   1.8771   1.9062   1.9327   1.9543   1.9573   1.9966
     2.0135   2.0491   2.0587   2.0898   2.1658   2.1955   2.2950   2.3666

     highest occupied level (ev):     3.1472

!    total energy              =   -2256.29701542 Ry
     estimated scf accuracy    <          6.6E-11 Ry

     The total energy is the sum of the following terms:
     one-electron contribution =    -994.32486268 Ry
     hartree contribution      =     625.34887298 Ry
     xc contribution           =    -647.53188999 Ry
     ewald contribution        =   -1239.78913573 Ry

     convergence has been achieved in  15 iterations

     Forces acting on atoms (cartesian axes, Ry/au):

     atom    1 type  1   force =    -0.01233876   -0.00120777    0.00972664
     atom    2 type  2   force =    -0.00628109    0.00770944   -0.00171194
     atom    3 type  3   force =    -0.00166871   -0.00989724   -0.00404968
     atom    4 type  3   force =     0.00005353    0.00354671    0.02519829
     atom    5 type  3   force =    -0.00476011    0.01050537    0.00399298
     atom    6 type  1   force =     0.00294979    0.00036863    0.00224021
     atom    7 type  2   force =    -0.01153356   -0.00384882   -0.00384529
     atom    8 type  3   force =    -0.02083768    0.00057165    0.00250168
     atom    9 type  3   force =     0.00037645   -0.00655029   -0.00753823
     atom   10 type  3   force =    -0.00002680    0.00803506   -0.00664706
     atom   11 type  1   force =     0.00099186    0.00220910   -0.00073310
     atom   12 type  2   force =     0.01989049   -0.00348594    0.00910155
     atom   13 type  3   force =    -0.00261358   -0.00016690    0.00568816
     atom   14 type  3   force =    -0.00338150   -0.00432609    0.00187631
     atom   15 type  3   force =     0.00089264   -0.01382334   -0.00658199
     atom   16 type  1   force =    -0.00176250    0.00282534    0.00094617
     atom   17 type  2   force =     0.01008778    0.00273992   -0.00653678
     atom   18 type  3   force =    -0.00331276    0.00450931   -0.00457287
     atom   19 type  3   force =    -0.01212514    0.00766347    0.00302209
     atom   20 type  3   force =    -0.00139297   -0.00889886    0.00276971
     atom   21 type  1   force =    -0.00048416   -0.00160094    0.00156784
     atom   22 type  2   force =     0.00653368    0.00506701    0.00738140
     atom   23 type  3   force =    -0.00201482   -0.00278057   -0.00475901
     atom   24 type  3   force =    -0.00588558    0.00848776   -0.00110806
     atom   25 type  3   force =     0.01833616    0.02623334   -0.00863688
     atom   26 type  1   force =     0.00518973   -0.00209119    0.00224133
     atom   27 type  2   force =     0.01176856    0.00180357   -0.00332175
     atom   28 type  3   force =     0.01777614    0.00275579    0.00531115
     atom   29 type  3   force =     0.00337936   -0.00389942   -0.01728210
     atom   30 type  3   force =    -0.00384745   -0.00527855   -0.00637113
     atom   31 type  1   force =     0.00301348    0.00214069   -0.00296424
     atom   32 type  2   force =    -0.01494522    0.00427114   -0.00085134
     atom   33 type  3   force =     0.00502678   -0.00328391   -0.00334971
     atom   34 type  3   force =     0.00298552   -0.00432416    0.00194931
     atom   35 type  3   force =    -0.00051541   -0.01115221   -0.00401380
     atom   36 type  1   force =    -0.00226921    0.00331617   -0.00365863
     atom   37 type  2   force =    -0.00938008   -0.00901788   -0.00249281
     atom   38 type  3   force =     0.00265778   -0.00202909    0.00354158
     atom   39 type  3   force =     0.01514374   -0.00073459    0.00281134
     atom   40 type  3   force =    -0.00567639   -0.00636172    0.00915867

     Total force =     0.082710     Total SCF correction =     0.000037


     Computing stress (Cartesian axis) and pressure

          total   stress  (Ry/bohr**3)                   (kbar)     P=       -7.23
  -0.00004980   0.00000218   0.00000082           -7.33        0.32        0.12
   0.00000218  -0.00005325  -0.00000054            0.32       -7.83       -0.08
   0.00000082  -0.00000054  -0.00004438            0.12       -0.08       -6.53

 
     init_run     :     20.07s CPU     17.18s WALL (       1 calls)
     electrons    :    202.21s CPU    214.41s WALL (       1 calls)
     forces       :      8.95s CPU      3.98s WALL (       1 calls)
     stress       :     30.21s CPU     30.87s WALL (       1 calls)

     Called by init_run:
     wfcinit      :     12.16s CPU     14.11s WALL (       1 calls)
                                       14.11s GPU  (       1 calls)
     potinit      :      4.54s CPU      1.41s WALL (       1 calls)
     hinit0       :      2.80s CPU      0.99s WALL (       1 calls)

     Called by electrons:
     c_bands      :    120.51s CPU    171.63s WALL (      16 calls)
     sum_band     :     21.91s CPU     21.20s WALL (      16 calls)
                                       21.20s GPU  (      16 calls)
     v_of_rho     :     55.17s CPU     16.64s WALL (      16 calls)
     mix_rho      :      6.63s CPU      5.19s WALL (      16 calls)

     Called by c_bands:
     init_us_2    :      2.24s CPU      3.04s WALL (     280 calls)
                                        3.03s GPU  (     280 calls)
     cegterg      :     78.53s CPU    126.83s WALL (     128 calls)

     Called by *egterg:
     cdiaghg      :     13.74s CPU     25.43s WALL (     652 calls)
                                       25.40s GPU  (     652 calls)
     h_psi        :     53.06s CPU     73.44s WALL (     668 calls)
                                       73.01s GPU  (     668 calls)
     g_psi        :      0.00s CPU      0.36s WALL (     532 calls)
                                        0.35s GPU  (     532 calls)

     Called by h_psi:
     h_psi:calbec :      0.34s CPU      9.87s WALL (     668 calls)
                                        9.86s GPU  (     668 calls)
     vloc_psi     :     38.91s CPU     53.71s WALL (     668 calls)
                                       52.80s GPU  (     668 calls)
     add_vuspsi   :      0.34s CPU      9.78s WALL (     668 calls)
                                        9.77s GPU  (     668 calls)

     General routines
     calbec       :      0.34s CPU      0.39s WALL (     708 calls)
     fft          :     25.73s CPU      6.53s WALL (     185 calls)
                                        0.00s GPU  (       6 calls)
     ffts         :      2.61s CPU      0.68s WALL (      16 calls)
     fftw         :      0.64s CPU     62.29s WALL (   10388 calls)
                                       46.53s GPU  (   10388 calls)
 
     Parallel routines
 
     PWSCF        :   4m22.07s CPU   4m27.19s WALL

 
   This run was terminated on:  20:34:58  22Apr2021            

=------------------------------------------------------------------------------=
   JOB DONE.
=------------------------------------------------------------------------------=
