
     Program PWSCF v.6.7MaX starts on 22Apr2021 at 21:55:28 

     This program is part of the open-source Quantum ESPRESSO suite
     for quantum simulation of materials; please cite
         "P. Giannozzi et al., J. Phys.:Condens. Matter 21 395502 (2009);
         "P. Giannozzi et al., J. Phys.:Condens. Matter 29 465901 (2017);
         "P. Giannozzi et al., J. Chem. Phys. 152 154105 (2020);
          URL http://www.quantum-espresso.org", 
     in publications or presentations arising from this work. More details at
     http://www.quantum-espresso.org/quote

     Parallel version (MPI & OpenMP), running on      16 processor cores
     Number of MPI processes:                 4
     Threads/MPI process:                     4

     MPI processes distributed on     1 nodes
     K-points division:     npool     =       4
     Reading input from ESP_21.pwi
Warning: card &CELL ignored
Warning: card / ignored

     Current dimensions of program PWSCF are:
     Max number of different atomic species (ntypx) = 10
     Max number of k-points (npk) =  40000
     Max angular momentum in pseudopotentials (lmaxx) =  3
     Message from routine read_pp_mesh:
     mesh size missing, using the one in header
     Message from routine read_pp_mesh:
     mesh size missing, using the one in header
     Message from routine read_pp_mesh:
     mesh size missing, using the one in header

     Subspace diagonalization in iterative solution of the eigenvalue problem:
     a serial algorithm will be used

 
     G-vector sticks info
     --------------------
     sticks:   dense  smooth     PW     G-vecs:    dense   smooth      PW
     Sum       12589   12589   3289              1061107  1061107  140905
 
     Using Slab Decomposition
 


     bravais-lattice index     =            0
     lattice parameter (alat)  =      23.7585  a.u.
     unit-cell volume          =   13410.8736 (a.u.)^3
     number of atoms/cell      =           40
     number of atomic types    =            3
     number of electrons       =       352.00
     number of Kohn-Sham states=          176
     kinetic-energy cutoff     =      70.0000  Ry
     charge density cutoff     =     280.0000  Ry
     scf convergence threshold =      1.0E-10
     mixing beta               =       0.7000
     number of iterations used =            8  plain     mixing
     Exchange-correlation= PBESOL
                           (   1   4  10   8   0   0   0)

     GPU acceleration is ACTIVE.


     celldm(1)=  23.758500  celldm(2)=   0.000000  celldm(3)=   0.000000
     celldm(4)=   0.000000  celldm(5)=   0.000000  celldm(6)=   0.000000

     crystal axes: (cart. coord. in units of alat)
               a(1) = (   1.000000   0.000000   0.000000 )  
               a(2) = (   0.000000   1.000000   0.000000 )  
               a(3) = (   0.000000   0.000000   1.000000 )  

     reciprocal axes: (cart. coord. in units 2 pi/alat)
               b(1) = (  1.000000  0.000000  0.000000 )  
               b(2) = (  0.000000  1.000000  0.000000 )  
               b(3) = (  0.000000  0.000000  1.000000 )  


     PseudoPot. # 1 for Cs read from file:
     /m100/home/userexternal/lmonacel/espresso/pseudo/Cs-nc-pbesol.upf
     MD5 check sum: 9d2f2206a14dc5b3b3f3fbfae186bed4
     Pseudo is Norm-conserving + core correction, Zval =  9.0
     Generated using ONCVPSP code by D. R. Hamann
     Using radial grid of 2384 points,  8 beta functions with: 
                l(1) =   0
                l(2) =   0
                l(3) =   1
                l(4) =   1
                l(5) =   2
                l(6) =   2
                l(7) =   3
                l(8) =   3

     PseudoPot. # 2 for Sn read from file:
     /m100/home/userexternal/lmonacel/espresso/pseudo/Sn-nc-pbesol.upf
     MD5 check sum: c2995d571af40102bfea7461443d92cf
     Pseudo is Norm-conserving + core correction, Zval = 14.0
     Generated using ONCVPSP code by D. R. Hamann
     Using radial grid of 1628 points,  6 beta functions with: 
                l(1) =   0
                l(2) =   0
                l(3) =   1
                l(4) =   1
                l(5) =   2
                l(6) =   2

     PseudoPot. # 3 for I  read from file:
     /m100/home/userexternal/lmonacel/espresso/pseudo/I-nc-pbesol.upf
     MD5 check sum: 80ed5ceb2eb9c553cfb6760a299d9c5b
     Pseudo is Norm-conserving + core correction, Zval =  7.0
     Generated using ONCVPSP code by D. R. Hamann
     Using radial grid of 1182 points,  6 beta functions with: 
                l(1) =   0
                l(2) =   0
                l(3) =   1
                l(4) =   1
                l(5) =   2
                l(6) =   2

     atomic species   valence    mass     pseudopotential
        Cs             9.00   132.90545     Cs( 1.00)
        Sn            14.00   118.71000     Sn( 1.00)
        I              7.00   126.90447     I ( 1.00)

     No symmetry found



   Cartesian axes

     site n.     atom                  positions (alat units)
         1           Cs  tau(   1) = (   0.2149914   0.2376747   0.2230076  )
         2           Sn  tau(   2) = (  -0.0095931   0.0070854  -0.0000778  )
         3           I   tau(   3) = (   0.2533765  -0.0090986  -0.0122727  )
         4           I   tau(   4) = (   0.0109361   0.0378358   0.2601308  )
         5           I   tau(   5) = (  -0.0137140   0.2370420  -0.0176553  )
         6           Cs  tau(   6) = (   0.2515562   0.2578866   0.7359028  )
         7           Sn  tau(   7) = (   0.0220788   0.0036322   0.5234893  )
         8           I   tau(   8) = (   0.2465289  -0.0298930   0.4991231  )
         9           I   tau(   9) = (  -0.0063678  -0.0007086   0.7577140  )
        10           I   tau(  10) = (   0.0161328   0.2558844   0.5195516  )
        11           Cs  tau(  11) = (   0.2471864   0.7369091   0.2391650  )
        12           Sn  tau(  12) = (   0.0010884   0.4955508  -0.0088554  )
        13           I   tau(  13) = (   0.2537037   0.5053311   0.0376879  )
        14           I   tau(  14) = (  -0.0321101   0.4771304   0.2396157  )
        15           I   tau(  15) = (   0.0162377   0.7488313   0.0191926  )
        16           Cs  tau(  16) = (   0.2447580   0.7084232   0.7549992  )
        17           Sn  tau(  17) = (   0.0033919   0.5060683   0.4971194  )
        18           I   tau(  18) = (   0.2498103   0.4986867   0.5020194  )
        19           I   tau(  19) = (   0.0263167   0.4970593   0.7455930  )
        20           I   tau(  20) = (  -0.0426405   0.7533180   0.4940938  )
        21           Cs  tau(  21) = (   0.7173752   0.2279814   0.2632987  )
        22           Sn  tau(  22) = (   0.4892199   0.0099327  -0.0081128  )
        23           I   tau(  23) = (   0.7541676   0.0059329  -0.0139890  )
        24           I   tau(  24) = (   0.5037210  -0.0140805   0.2542270  )
        25           I   tau(  25) = (   0.5178339   0.2588736  -0.0339304  )
        26           Cs  tau(  26) = (   0.7084912   0.2781459   0.7256621  )
        27           Sn  tau(  27) = (   0.5233215  -0.0010581   0.5147915  )
        28           I   tau(  28) = (   0.7569599   0.0127387   0.5002441  )
        29           I   tau(  29) = (   0.5161037   0.0136386   0.7641791  )
        30           I   tau(  30) = (   0.4933987   0.2509610   0.4978644  )
        31           Cs  tau(  31) = (   0.7837849   0.7793793   0.2446732  )
        32           Sn  tau(  32) = (   0.5028596   0.5091427   0.0188577  )
        33           I   tau(  33) = (   0.7422337   0.5092807  -0.0339168  )
        34           I   tau(  34) = (   0.5283237   0.4969056   0.2702210  )
        35           I   tau(  35) = (   0.5127177   0.7512174  -0.0238818  )
        36           Cs  tau(  36) = (   0.7704524   0.7628805   0.7633780  )
        37           Sn  tau(  37) = (   0.5091600   0.5100390   0.5194990  )
        38           I   tau(  38) = (   0.7530102   0.4724007   0.5021772  )
        39           I   tau(  39) = (   0.4544935   0.4982991   0.7635246  )
        40           I   tau(  40) = (   0.5142890   0.7458548   0.5077114  )

     number of k points=    32
                       cart. coord. in units 2pi/alat
        k(    1) = (   0.1250000   0.1250000   0.1250000), wk =   0.0625000
        k(    2) = (   0.1250000   0.1250000   0.3750000), wk =   0.0625000
        k(    3) = (   0.1250000   0.3750000   0.3750000), wk =   0.0625000
        k(    4) = (   0.3750000   0.3750000   0.3750000), wk =   0.0625000
        k(    5) = (  -0.1250000  -0.1250000   0.1250000), wk =   0.0625000
        k(    6) = (  -0.1250000   0.1250000  -0.1250000), wk =   0.0625000
        k(    7) = (   0.1250000  -0.1250000  -0.1250000), wk =   0.0625000
        k(    8) = (  -0.1250000  -0.1250000   0.3750000), wk =   0.0625000
        k(    9) = (  -0.1250000   0.1250000  -0.3750000), wk =   0.0625000
        k(   10) = (   0.1250000  -0.1250000  -0.3750000), wk =   0.0625000
        k(   11) = (   0.3750000  -0.1250000   0.1250000), wk =   0.0625000
        k(   12) = (  -0.3750000  -0.1250000  -0.1250000), wk =   0.0625000
        k(   13) = (   0.3750000   0.1250000  -0.1250000), wk =   0.0625000
        k(   14) = (  -0.3750000   0.1250000   0.1250000), wk =   0.0625000
        k(   15) = (  -0.1250000   0.3750000   0.1250000), wk =   0.0625000
        k(   16) = (  -0.1250000  -0.3750000  -0.1250000), wk =   0.0625000
        k(   17) = (   0.1250000   0.3750000  -0.1250000), wk =   0.0625000
        k(   18) = (   0.1250000  -0.3750000   0.1250000), wk =   0.0625000
        k(   19) = (  -0.1250000  -0.3750000   0.3750000), wk =   0.0625000
        k(   20) = (  -0.1250000   0.3750000  -0.3750000), wk =   0.0625000
        k(   21) = (   0.1250000  -0.3750000  -0.3750000), wk =   0.0625000
        k(   22) = (   0.3750000   0.1250000  -0.3750000), wk =   0.0625000
        k(   23) = (  -0.3750000  -0.1250000  -0.3750000), wk =   0.0625000
        k(   24) = (   0.3750000  -0.1250000   0.3750000), wk =   0.0625000
        k(   25) = (  -0.3750000   0.1250000   0.3750000), wk =   0.0625000
        k(   26) = (   0.3750000  -0.3750000   0.1250000), wk =   0.0625000
        k(   27) = (  -0.3750000  -0.3750000  -0.1250000), wk =   0.0625000
        k(   28) = (   0.3750000   0.3750000  -0.1250000), wk =   0.0625000
        k(   29) = (  -0.3750000   0.3750000   0.1250000), wk =   0.0625000
        k(   30) = (  -0.3750000  -0.3750000   0.3750000), wk =   0.0625000
        k(   31) = (  -0.3750000   0.3750000  -0.3750000), wk =   0.0625000
        k(   32) = (   0.3750000  -0.3750000  -0.3750000), wk =   0.0625000

     Dense  grid:  1061107 G-vectors     FFT dimensions: ( 128, 128, 128)

     Estimated max dynamical RAM per process >       6.82 GB

     Estimated total dynamical RAM >      27.27 GB

     Initial potential from superposition of free atoms

     starting charge  351.69472, renormalised to  352.00000
     Starting wfcs are  208 randomized atomic wfcs

     total cpu time spent up to now is       17.7 secs

     Self-consistent Calculation

     iteration #  1     ecut=    70.00 Ry     beta= 0.70
     Davidson diagonalization with overlap
     ethr =  1.00E-02,  avg # of iterations =  2.0

     Threshold (ethr) on eigenvalues was too large:
     Diagonalizing with lowered threshold

     Davidson diagonalization with overlap
     ethr =  2.16E-04,  avg # of iterations =  4.0

     total cpu time spent up to now is       38.6 secs

     total energy              =   -2256.03996097 Ry
     estimated scf accuracy    <       0.65703753 Ry

     iteration #  2     ecut=    70.00 Ry     beta= 0.70
     Davidson diagonalization with overlap
     ethr =  1.87E-04,  avg # of iterations =  3.3

     total cpu time spent up to now is       51.3 secs

     total energy              =   -2256.24304463 Ry
     estimated scf accuracy    <       0.29554524 Ry

     iteration #  3     ecut=    70.00 Ry     beta= 0.70
     Davidson diagonalization with overlap
     ethr =  8.40E-05,  avg # of iterations =  2.7

     total cpu time spent up to now is       63.0 secs

     total energy              =   -2256.29938689 Ry
     estimated scf accuracy    <       0.02253114 Ry

     iteration #  4     ecut=    70.00 Ry     beta= 0.70
     Davidson diagonalization with overlap
     ethr =  6.40E-06,  avg # of iterations =  4.1

     total cpu time spent up to now is       76.2 secs

     total energy              =   -2256.30722440 Ry
     estimated scf accuracy    <       0.00585509 Ry

     iteration #  5     ecut=    70.00 Ry     beta= 0.70
     Davidson diagonalization with overlap
     ethr =  1.66E-06,  avg # of iterations =  3.1

     total cpu time spent up to now is       88.3 secs

     total energy              =   -2256.30831661 Ry
     estimated scf accuracy    <       0.00099199 Ry

     iteration #  6     ecut=    70.00 Ry     beta= 0.70
     Davidson diagonalization with overlap
     ethr =  2.82E-07,  avg # of iterations =  4.0

     total cpu time spent up to now is      100.8 secs

     total energy              =   -2256.30851077 Ry
     estimated scf accuracy    <       0.00014012 Ry

     iteration #  7     ecut=    70.00 Ry     beta= 0.70
     Davidson diagonalization with overlap
     ethr =  3.98E-08,  avg # of iterations =  4.7

     total cpu time spent up to now is      114.6 secs

     total energy              =   -2256.30855987 Ry
     estimated scf accuracy    <       0.00001821 Ry

     iteration #  8     ecut=    70.00 Ry     beta= 0.70
     Davidson diagonalization with overlap
     ethr =  5.17E-09,  avg # of iterations =  3.3

     total cpu time spent up to now is      128.3 secs

     total energy              =   -2256.30856786 Ry
     estimated scf accuracy    <       0.00000334 Ry

     iteration #  9     ecut=    70.00 Ry     beta= 0.70
     Davidson diagonalization with overlap
     ethr =  9.48E-10,  avg # of iterations =  5.2

     total cpu time spent up to now is      143.0 secs

     total energy              =   -2256.30856917 Ry
     estimated scf accuracy    <       0.00000070 Ry

     iteration # 10     ecut=    70.00 Ry     beta= 0.70
     Davidson diagonalization with overlap
     ethr =  1.99E-10,  avg # of iterations =  4.8

     total cpu time spent up to now is      157.3 secs

     total energy              =   -2256.30856942 Ry
     estimated scf accuracy    <       0.00000011 Ry

     iteration # 11     ecut=    70.00 Ry     beta= 0.70
     Davidson diagonalization with overlap
     ethr =  3.21E-11,  avg # of iterations =  5.8

     total cpu time spent up to now is      172.6 secs

     total energy              =   -2256.30856949 Ry
     estimated scf accuracy    <       0.00000003 Ry

     iteration # 12     ecut=    70.00 Ry     beta= 0.70
     Davidson diagonalization with overlap
     ethr =  9.34E-12,  avg # of iterations =  3.4

     total cpu time spent up to now is      186.1 secs

     total energy              =   -2256.30856950 Ry
     estimated scf accuracy    <          7.1E-09 Ry

     iteration # 13     ecut=    70.00 Ry     beta= 0.70
     Davidson diagonalization with overlap
     ethr =  2.02E-12,  avg # of iterations =  4.1

     total cpu time spent up to now is      200.0 secs

     total energy              =   -2256.30856950 Ry
     estimated scf accuracy    <          5.8E-10 Ry

     iteration # 14     ecut=    70.00 Ry     beta= 0.70
     Davidson diagonalization with overlap
     ethr =  1.65E-13,  avg # of iterations =  7.1

     total cpu time spent up to now is      219.9 secs

     total energy              =   -2256.30856950 Ry
     estimated scf accuracy    <          1.5E-10 Ry

     iteration # 15     ecut=    70.00 Ry     beta= 0.70
     Davidson diagonalization with overlap
     ethr =  1.00E-13,  avg # of iterations =  2.1

     total cpu time spent up to now is      231.2 secs

     End of self-consistent calculation

          k = 0.1250 0.1250 0.1250 (132670 PWs)   bands (ev):

   -18.4776 -18.4250 -18.3847 -18.3845 -18.3804 -18.3736 -18.3693 -18.3640
   -18.3637 -18.3562 -18.3555 -18.2867 -18.2827 -18.2799 -18.2775 -18.2742
   -18.2730 -18.2720 -18.2677 -18.2656 -18.2640 -18.2585 -18.2285 -18.2278
   -18.2215 -18.2210 -18.2162 -18.2148 -18.2131 -18.2105 -18.2090 -18.2088
   -18.2018 -18.1992 -18.1953 -18.1906 -18.1855 -18.1837 -18.1823 -18.1816
   -18.1781 -18.1743 -18.1715 -18.1661 -18.1642 -18.1587 -18.1544 -18.1499
    -9.4488  -9.3310  -9.2685  -9.2118  -9.1329  -9.0801  -9.0418  -9.0034
    -8.9779  -8.9603  -8.9507  -8.8990  -8.8793  -8.8715  -8.8347  -8.8186
    -8.7879  -8.7715  -8.7012  -8.6731  -8.6522  -8.6395  -8.5827  -8.5352
    -5.2498  -5.2348  -5.2312  -5.2035  -5.1967  -5.1789  -5.1615  -5.1527
    -5.1498  -5.1480  -5.1432  -5.1410  -5.1360  -5.1299  -5.1259  -5.1248
    -5.1182  -5.1173  -5.0510  -5.0369  -5.0363  -4.9908  -4.9802  -4.9667
    -4.4647  -3.9912  -3.9279  -3.8678  -3.4318  -3.3635  -3.3083  -2.7473
    -0.7330  -0.6974  -0.6589  -0.5831  -0.5555  -0.5392  -0.5080  -0.4553
    -0.4095  -0.3628  -0.3210  -0.2428   0.4411   0.4797   0.5138   0.6186
     0.6276   0.6728   0.7537   0.7968   0.8251   0.9312   0.9415   0.9615
     1.0127   1.0380   1.0899   1.1056   1.1279   1.1642   1.1817   1.2041
     1.2369   1.2497   1.2590   1.2851   1.3101   1.3453   1.3620   1.3804
     1.4032   1.4218   1.4420   1.4656   1.5033   1.5199   1.5510   1.5714
     1.5811   1.6020   1.6196   1.6478   1.6650   1.6759   1.6915   1.7227
     1.7443   1.7599   1.7907   1.9391   1.9888   2.0283   2.0671   2.0880
     2.1207   2.1486   2.2350   2.2865   2.5984   2.7097   2.7871   3.1026

          k = 0.1250 0.1250 0.3750 (132608 PWs)   bands (ev):

   -18.4776 -18.4250 -18.3847 -18.3845 -18.3804 -18.3736 -18.3693 -18.3640
   -18.3637 -18.3562 -18.3555 -18.2867 -18.2827 -18.2799 -18.2775 -18.2742
   -18.2730 -18.2720 -18.2677 -18.2656 -18.2640 -18.2585 -18.2285 -18.2278
   -18.2214 -18.2211 -18.2162 -18.2148 -18.2131 -18.2105 -18.2090 -18.2088
   -18.2018 -18.1992 -18.1953 -18.1906 -18.1855 -18.1837 -18.1823 -18.1816
   -18.1781 -18.1743 -18.1715 -18.1661 -18.1642 -18.1587 -18.1544 -18.1499
    -9.4401  -9.3267  -9.2651  -9.2285  -9.1259  -9.1033  -9.0559  -9.0095
    -8.9769  -8.9516  -8.9451  -8.8965  -8.8805  -8.8700  -8.8359  -8.7988
    -8.7819  -8.7558  -8.7024  -8.6711  -8.6635  -8.6399  -8.5894  -8.5395
    -5.2496  -5.2342  -5.2308  -5.2039  -5.1966  -5.1804  -5.1616  -5.1507
    -5.1493  -5.1465  -5.1436  -5.1421  -5.1356  -5.1304  -5.1276  -5.1244
    -5.1182  -5.1175  -5.0514  -5.0370  -5.0364  -4.9910  -4.9805  -4.9660
    -4.3530  -4.0820  -3.8472  -3.7913  -3.5590  -3.5066  -3.2568  -2.9450
    -0.7051  -0.6351  -0.6137  -0.5574  -0.4962  -0.4669  -0.4364  -0.3663
    -0.1693  -0.1072  -0.0569   0.0427   0.4410   0.4721   0.5173   0.5349
     0.5516   0.5915   0.6028   0.6722   0.7015   0.7704   0.7778   0.8024
     0.9338   0.9610   1.0299   1.0511   1.0724   1.1184   1.1328   1.1659
     1.2164   1.2341   1.2752   1.3091   1.3307   1.3492   1.3753   1.3988
     1.4228   1.4267   1.4588   1.4820   1.5175   1.5497   1.5755   1.5912
     1.6062   1.6246   1.6515   1.6651   1.6848   1.6975   1.7304   1.7361
     1.7571   1.8032   1.8233   1.8544   1.9166   1.9358   1.9809   2.0387
     2.0702   2.0945   2.1846   2.3048   2.3362   2.4697   2.7520   2.8364

          k = 0.1250 0.3750 0.3750 (132616 PWs)   bands (ev):

   -18.4776 -18.4250 -18.3847 -18.3845 -18.3804 -18.3736 -18.3693 -18.3640
   -18.3637 -18.3562 -18.3555 -18.2867 -18.2827 -18.2798 -18.2775 -18.2742
   -18.2730 -18.2720 -18.2677 -18.2656 -18.2640 -18.2585 -18.2285 -18.2278
   -18.2214 -18.2211 -18.2162 -18.2148 -18.2131 -18.2105 -18.2090 -18.2088
   -18.2018 -18.1992 -18.1953 -18.1906 -18.1855 -18.1837 -18.1823 -18.1816
   -18.1781 -18.1743 -18.1715 -18.1661 -18.1642 -18.1587 -18.1544 -18.1499
    -9.4308  -9.3221  -9.2736  -9.2092  -9.1556  -9.1258  -9.0569  -9.0136
    -8.9758  -8.9515  -8.9460  -8.8978  -8.8689  -8.8530  -8.8293  -8.8007
    -8.7750  -8.7359  -8.6997  -8.6803  -8.6676  -8.6500  -8.5927  -8.5420
    -5.2494  -5.2343  -5.2309  -5.2038  -5.1962  -5.1804  -5.1612  -5.1512
    -5.1492  -5.1463  -5.1438  -5.1418  -5.1348  -5.1309  -5.1291  -5.1237
    -5.1185  -5.1171  -5.0514  -5.0369  -5.0363  -4.9908  -4.9805  -4.9662
    -4.2318  -4.0458  -3.8901  -3.7150  -3.7024  -3.5034  -3.3275  -3.1450
    -0.6811  -0.5925  -0.5660  -0.5085  -0.3236  -0.2309  -0.1947  -0.1287
    -0.0709   0.0101   0.0489   0.1194   0.3743   0.4344   0.4608   0.4900
     0.5262   0.5587   0.5702   0.6293   0.6523   0.6700   0.7213   0.7586
     0.7768   0.9124   0.9208   0.9571   0.9959   1.0192   1.0965   1.1229
     1.1517   1.1820   1.2176   1.2641   1.2859   1.3147   1.3509   1.4026
     1.4232   1.4404   1.4914   1.5053   1.5333   1.5734   1.5880   1.6067
     1.6275   1.6416   1.6807   1.6937   1.7076   1.7388   1.7547   1.7906
     1.8063   1.8153   1.8469   1.8691   1.9056   1.9221   1.9543   1.9808
     2.0108   2.0246   2.0644   2.1415   2.2697   2.3573   2.5178   2.5550

          k = 0.3750 0.3750 0.3750 (132612 PWs)   bands (ev):

   -18.4776 -18.4250 -18.3847 -18.3845 -18.3804 -18.3736 -18.3693 -18.3640
   -18.3637 -18.3562 -18.3555 -18.2867 -18.2827 -18.2798 -18.2775 -18.2742
   -18.2730 -18.2720 -18.2677 -18.2656 -18.2640 -18.2585 -18.2285 -18.2278
   -18.2214 -18.2211 -18.2162 -18.2148 -18.2131 -18.2105 -18.2090 -18.2088
   -18.2018 -18.1992 -18.1953 -18.1906 -18.1855 -18.1837 -18.1823 -18.1816
   -18.1781 -18.1743 -18.1715 -18.1661 -18.1642 -18.1587 -18.1544 -18.1499
    -9.4072  -9.3536  -9.2555  -9.1976  -9.1680  -9.1239  -9.0809  -9.0597
    -8.9719  -8.9406  -8.9321  -8.8812  -8.8692  -8.8479  -8.8174  -8.7950
    -8.7529  -8.7370  -8.7023  -8.6898  -8.6742  -8.6594  -8.5926  -8.5436
    -5.2495  -5.2345  -5.2311  -5.2037  -5.1963  -5.1804  -5.1614  -5.1516
    -5.1493  -5.1458  -5.1435  -5.1423  -5.1349  -5.1310  -5.1295  -5.1235
    -5.1180  -5.1169  -5.0513  -5.0368  -5.0361  -4.9907  -4.9802  -4.9663
    -4.1086  -3.9540  -3.8510  -3.7609  -3.6921  -3.5764  -3.4991  -3.3429
    -0.4106  -0.3883  -0.3167  -0.2713  -0.2321  -0.1691  -0.1332  -0.0879
    -0.0444   0.0033   0.0799   0.1832   0.3354   0.3902   0.3968   0.4394
     0.4806   0.5043   0.5410   0.5587   0.5912   0.6289   0.6532   0.7066
     0.8502   0.8671   0.9318   0.9394   0.9886   1.0333   1.0506   1.0765
     1.0862   1.1053   1.1440   1.1699   1.2105   1.2281   1.2541   1.2880
     1.3926   1.4267   1.4689   1.5137   1.5703   1.5871   1.6125   1.6292
     1.6786   1.7060   1.7257   1.7443   1.7586   1.7906   1.7978   1.8124
     1.8210   1.8279   1.8356   1.8741   1.8789   1.8945   1.9381   1.9524
     1.9784   1.9911   2.0248   2.0528   2.0805   2.1645   2.2477   2.2831

          k =-0.1250-0.1250 0.1250 (132670 PWs)   bands (ev):

   -18.4776 -18.4250 -18.3847 -18.3845 -18.3804 -18.3736 -18.3693 -18.3640
   -18.3637 -18.3562 -18.3555 -18.2867 -18.2827 -18.2799 -18.2775 -18.2742
   -18.2730 -18.2720 -18.2677 -18.2656 -18.2640 -18.2585 -18.2285 -18.2278
   -18.2215 -18.2210 -18.2162 -18.2148 -18.2131 -18.2105 -18.2090 -18.2088
   -18.2018 -18.1992 -18.1953 -18.1906 -18.1855 -18.1837 -18.1823 -18.1816
   -18.1781 -18.1743 -18.1715 -18.1661 -18.1642 -18.1587 -18.1544 -18.1499
    -9.4489  -9.3312  -9.2664  -9.2146  -9.1312  -9.0789  -9.0431  -9.0069
    -8.9715  -8.9648  -8.9499  -8.8980  -8.8810  -8.8720  -8.8420  -8.8049
    -8.7894  -8.7739  -8.7014  -8.6737  -8.6500  -8.6426  -8.5820  -8.5352
    -5.2497  -5.2349  -5.2314  -5.2031  -5.1967  -5.1790  -5.1613  -5.1526
    -5.1496  -5.1480  -5.1433  -5.1408  -5.1366  -5.1299  -5.1268  -5.1238
    -5.1183  -5.1172  -5.0510  -5.0369  -5.0363  -4.9908  -4.9802  -4.9667
    -4.4657  -3.9724  -3.9445  -3.8718  -3.4107  -3.3656  -3.3276  -2.7435
    -0.7269  -0.7046  -0.6710  -0.6215  -0.5497  -0.5074  -0.4949  -0.4527
    -0.4314  -0.3524  -0.3086  -0.2353   0.4431   0.4777   0.5098   0.6127
     0.6471   0.6600   0.7493   0.7992   0.8271   0.8966   0.9394   0.9804
     1.0184   1.0506   1.0882   1.0961   1.1240   1.1612   1.1750   1.2021
     1.2326   1.2499   1.2673   1.2965   1.3175   1.3324   1.3601   1.3793
     1.4002   1.4094   1.4507   1.4790   1.5049   1.5270   1.5428   1.5587
     1.5854   1.6051   1.6188   1.6374   1.6587   1.6775   1.6912   1.7153
     1.7433   1.7716   1.8084   1.9447   2.0068   2.0261   2.0704   2.0858
     2.1116   2.1410   2.2198   2.3070   2.6169   2.7077   2.7588   3.1168

          k =-0.1250 0.1250-0.1250 (132670 PWs)   bands (ev):

   -18.4776 -18.4250 -18.3847 -18.3845 -18.3804 -18.3736 -18.3693 -18.3640
   -18.3637 -18.3562 -18.3555 -18.2867 -18.2827 -18.2799 -18.2775 -18.2742
   -18.2730 -18.2720 -18.2677 -18.2656 -18.2640 -18.2585 -18.2285 -18.2278
   -18.2215 -18.2210 -18.2162 -18.2148 -18.2131 -18.2105 -18.2090 -18.2088
   -18.2018 -18.1992 -18.1953 -18.1906 -18.1855 -18.1837 -18.1823 -18.1816
   -18.1781 -18.1743 -18.1715 -18.1661 -18.1642 -18.1587 -18.1544 -18.1499
    -9.4490  -9.3305  -9.2665  -9.2157  -9.1323  -9.0725  -9.0501  -9.0015
    -8.9781  -8.9610  -8.9495  -8.8955  -8.8864  -8.8704  -8.8349  -8.8183
    -8.7834  -8.7727  -8.7010  -8.6735  -8.6537  -8.6395  -8.5823  -8.5351
    -5.2499  -5.2346  -5.2313  -5.2035  -5.1967  -5.1788  -5.1618  -5.1529
    -5.1495  -5.1476  -5.1428  -5.1411  -5.1366  -5.1299  -5.1268  -5.1242
    -5.1183  -5.1170  -5.0510  -5.0369  -5.0363  -4.9909  -4.9801  -4.9667
    -4.4656  -3.9705  -3.9454  -3.8729  -3.4157  -3.3614  -3.3263  -2.7442
    -0.7294  -0.6993  -0.6590  -0.6195  -0.5710  -0.5197  -0.4767  -0.4631
    -0.4055  -0.3704  -0.3096  -0.2358   0.4422   0.4786   0.5091   0.6088
     0.6389   0.6712   0.7558   0.7948   0.8285   0.9187   0.9404   0.9794
     0.9957   1.0445   1.0808   1.0976   1.1383   1.1689   1.1779   1.1989
     1.2265   1.2389   1.2628   1.2948   1.3155   1.3259   1.3632   1.3863
     1.4030   1.4333   1.4561   1.4731   1.5058   1.5247   1.5484   1.5648
     1.5794   1.5958   1.6071   1.6452   1.6638   1.6892   1.6925   1.7213
     1.7409   1.7599   1.8030   1.9286   1.9914   2.0392   2.0699   2.0751
     2.1234   2.1468   2.2192   2.2999   2.6310   2.7047   2.7690   3.1062

          k = 0.1250-0.1250-0.1250 (132670 PWs)   bands (ev):

   -18.4776 -18.4250 -18.3847 -18.3845 -18.3804 -18.3736 -18.3693 -18.3640
   -18.3637 -18.3562 -18.3555 -18.2867 -18.2827 -18.2799 -18.2775 -18.2742
   -18.2730 -18.2720 -18.2677 -18.2656 -18.2640 -18.2585 -18.2285 -18.2278
   -18.2215 -18.2210 -18.2162 -18.2148 -18.2131 -18.2105 -18.2090 -18.2088
   -18.2018 -18.1992 -18.1953 -18.1906 -18.1855 -18.1837 -18.1823 -18.1816
   -18.1781 -18.1743 -18.1715 -18.1661 -18.1642 -18.1587 -18.1544 -18.1499
    -9.4488  -9.3305  -9.2690  -9.2128  -9.1309  -9.0745  -9.0530  -9.0015
    -8.9713  -8.9637  -8.9492  -8.8976  -8.8886  -8.8666  -8.8397  -8.8058
    -8.7924  -8.7733  -8.7016  -8.6741  -8.6493  -8.6414  -8.5826  -8.5352
    -5.2497  -5.2350  -5.2313  -5.2031  -5.1966  -5.1791  -5.1616  -5.1525
    -5.1497  -5.1480  -5.1435  -5.1409  -5.1359  -5.1299  -5.1264  -5.1248
    -5.1182  -5.1171  -5.0509  -5.0370  -5.0363  -4.9909  -4.9801  -4.9667
    -4.4647  -3.9891  -3.9285  -3.8702  -3.4283  -3.3675  -3.3083  -2.7452
    -0.7241  -0.7058  -0.6611  -0.6182  -0.5638  -0.5369  -0.4988  -0.4501
    -0.4029  -0.3656  -0.2906  -0.2363   0.4422   0.4777   0.5093   0.6198
     0.6355   0.6628   0.7543   0.7934   0.8287   0.9013   0.9455   0.9758
     1.0172   1.0417   1.0756   1.0883   1.1215   1.1657   1.1906   1.2078
     1.2289   1.2581   1.2744   1.2930   1.3216   1.3447   1.3571   1.3778
     1.4006   1.4176   1.4409   1.4778   1.4852   1.5281   1.5466   1.5636
     1.5752   1.5956   1.6081   1.6476   1.6713   1.6922   1.7006   1.7176
     1.7397   1.7618   1.7996   1.9458   1.9861   2.0327   2.0633   2.0799
     2.1186   2.1446   2.2420   2.2838   2.6104   2.7177   2.7680   3.1237

          k =-0.1250-0.1250 0.3750 (132608 PWs)   bands (ev):

   -18.4776 -18.4250 -18.3847 -18.3845 -18.3804 -18.3736 -18.3693 -18.3640
   -18.3637 -18.3562 -18.3555 -18.2867 -18.2827 -18.2799 -18.2775 -18.2742
   -18.2730 -18.2720 -18.2677 -18.2656 -18.2640 -18.2585 -18.2285 -18.2278
   -18.2214 -18.2211 -18.2162 -18.2148 -18.2131 -18.2105 -18.2090 -18.2088
   -18.2018 -18.1992 -18.1953 -18.1906 -18.1855 -18.1837 -18.1823 -18.1816
   -18.1781 -18.1743 -18.1715 -18.1661 -18.1642 -18.1587 -18.1544 -18.1499
    -9.4403  -9.3269  -9.2610  -9.2333  -9.1232  -9.1024  -9.0590  -9.0101
    -8.9744  -8.9542  -8.9444  -8.8953  -8.8820  -8.8704  -8.8384  -8.7940
    -8.7790  -8.7583  -8.7026  -8.6723  -8.6621  -8.6422  -8.5886  -8.5395
    -5.2494  -5.2344  -5.2310  -5.2035  -5.1966  -5.1806  -5.1613  -5.1506
    -5.1491  -5.1468  -5.1437  -5.1418  -5.1364  -5.1303  -5.1280  -5.1239
    -5.1182  -5.1174  -5.0515  -5.0370  -5.0363  -4.9910  -4.9805  -4.9660
    -4.3553  -4.0734  -3.8576  -3.7939  -3.5487  -3.5005  -3.2730  -2.9378
    -0.7008  -0.6406  -0.6102  -0.5888  -0.4794  -0.4746  -0.4265  -0.3744
    -0.1651  -0.0920  -0.0485   0.0623   0.4394   0.4763   0.5001   0.5103
     0.5555   0.5906   0.6143   0.6729   0.6962   0.7447   0.7848   0.8026
     0.9303   0.9667   1.0226   1.0694   1.0803   1.1042   1.1300   1.1603
     1.2323   1.2501   1.2758   1.2895   1.3247   1.3535   1.3749   1.3917
     1.4225   1.4292   1.4611   1.4883   1.5099   1.5507   1.5736   1.5858
     1.6129   1.6309   1.6558   1.6639   1.6837   1.6933   1.7163   1.7370
     1.7649   1.8104   1.8275   1.8448   1.9281   1.9516   1.9795   2.0252
     2.0797   2.0925   2.1690   2.3051   2.3609   2.4635   2.7297   2.8519

          k =-0.1250 0.1250-0.3750 (132608 PWs)   bands (ev):

   -18.4776 -18.4250 -18.3847 -18.3845 -18.3804 -18.3736 -18.3693 -18.3640
   -18.3637 -18.3562 -18.3555 -18.2867 -18.2827 -18.2799 -18.2775 -18.2742
   -18.2730 -18.2720 -18.2677 -18.2656 -18.2640 -18.2585 -18.2285 -18.2278
   -18.2214 -18.2211 -18.2162 -18.2148 -18.2131 -18.2105 -18.2090 -18.2088
   -18.2018 -18.1992 -18.1953 -18.1906 -18.1855 -18.1837 -18.1823 -18.1816
   -18.1781 -18.1743 -18.1715 -18.1661 -18.1642 -18.1587 -18.1544 -18.1499
    -9.4404  -9.3263  -9.2604  -9.2345  -9.1273  -9.0968  -9.0625  -9.0004
    -8.9824  -8.9540  -8.9440  -8.8931  -8.8875  -8.8681  -8.8338  -8.7995
    -8.7809  -8.7545  -8.7020  -8.6715  -8.6646  -8.6408  -8.5889  -8.5394
    -5.2496  -5.2342  -5.2309  -5.2039  -5.1965  -5.1803  -5.1616  -5.1516
    -5.1489  -5.1461  -5.1435  -5.1417  -5.1364  -5.1303  -5.1278  -5.1244
    -5.1181  -5.1173  -5.0515  -5.0370  -5.0363  -4.9911  -4.9805  -4.9660
    -4.3553  -4.0734  -3.8529  -3.7984  -3.5532  -3.4984  -3.2692  -2.9395
    -0.6995  -0.6542  -0.6326  -0.5477  -0.4790  -0.4683  -0.4244  -0.3696
    -0.1713  -0.1055  -0.0595   0.0558   0.4385   0.4767   0.5101   0.5241
     0.5600   0.5896   0.6032   0.6598   0.7074   0.7707   0.7750   0.8046
     0.9410   0.9563   1.0052   1.0547   1.0898   1.1200   1.1361   1.1748
     1.2092   1.2474   1.2684   1.3005   1.3176   1.3430   1.3678   1.3929
     1.4094   1.4450   1.4906   1.5007   1.5286   1.5339   1.5575   1.5847
     1.5978   1.6289   1.6563   1.6655   1.6959   1.7056   1.7198   1.7283
     1.7644   1.7895   1.8277   1.8456   1.9195   1.9480   1.9851   2.0312
     2.0632   2.1000   2.1877   2.2949   2.3539   2.4688   2.7430   2.8502

          k = 0.1250-0.1250-0.3750 (132608 PWs)   bands (ev):

   -18.4776 -18.4250 -18.3847 -18.3845 -18.3804 -18.3736 -18.3693 -18.3640
   -18.3637 -18.3562 -18.3555 -18.2867 -18.2827 -18.2799 -18.2775 -18.2742
   -18.2730 -18.2720 -18.2677 -18.2656 -18.2640 -18.2585 -18.2285 -18.2278
   -18.2214 -18.2211 -18.2162 -18.2148 -18.2131 -18.2105 -18.2090 -18.2088
   -18.2018 -18.1992 -18.1953 -18.1906 -18.1855 -18.1837 -18.1823 -18.1816
   -18.1781 -18.1743 -18.1715 -18.1661 -18.1642 -18.1587 -18.1544 -18.1499
    -9.4401  -9.3264  -9.2650  -9.2295  -9.1225  -9.1037  -9.0633  -8.9988
    -8.9798  -8.9552  -8.9437  -8.8951  -8.8882  -8.8658  -8.8353  -8.7927
    -8.7841  -8.7582  -8.7030  -8.6727  -8.6607  -8.6408  -8.5894  -8.5396
    -5.2494  -5.2345  -5.2309  -5.2035  -5.1965  -5.1805  -5.1614  -5.1510
    -5.1491  -5.1466  -5.1440  -5.1416  -5.1356  -5.1304  -5.1276  -5.1247
    -5.1180  -5.1174  -5.0514  -5.0371  -5.0363  -4.9910  -4.9804  -4.9660
    -4.3530  -4.0817  -3.8430  -3.7970  -3.5597  -3.5051  -3.2584  -2.9423
    -0.6953  -0.6574  -0.6266  -0.5528  -0.4904  -0.4654  -0.4359  -0.3764
    -0.1571  -0.0942  -0.0409   0.0502   0.4382   0.4702   0.5104   0.5174
     0.5609   0.5892   0.6054   0.6769   0.6947   0.7482   0.7806   0.8059
     0.9393   0.9575   1.0176   1.0464   1.0717   1.1230   1.1378   1.1779
     1.2144   1.2452   1.2736   1.3080   1.3285   1.3466   1.3808   1.4016
     1.4172   1.4306   1.4652   1.4934   1.5090   1.5361   1.5635   1.5842
     1.6008   1.6238   1.6587   1.6689   1.6845   1.7071   1.7218   1.7384
     1.7607   1.8035   1.8233   1.8554   1.9257   1.9519   1.9717   2.0256
     2.0721   2.0927   2.1787   2.3066   2.3532   2.4504   2.7525   2.8586

          k = 0.3750-0.1250 0.1250 (132608 PWs)   bands (ev):

   -18.4776 -18.4250 -18.3847 -18.3845 -18.3804 -18.3736 -18.3693 -18.3640
   -18.3637 -18.3562 -18.3555 -18.2867 -18.2827 -18.2798 -18.2775 -18.2742
   -18.2730 -18.2720 -18.2677 -18.2656 -18.2640 -18.2585 -18.2285 -18.2278
   -18.2215 -18.2210 -18.2162 -18.2148 -18.2131 -18.2105 -18.2090 -18.2088
   -18.2018 -18.1992 -18.1953 -18.1906 -18.1855 -18.1837 -18.1823 -18.1816
   -18.1781 -18.1743 -18.1715 -18.1661 -18.1642 -18.1587 -18.1544 -18.1499
    -9.4237  -9.3662  -9.2440  -9.1999  -9.1596  -9.1154  -9.0348  -9.0087
    -8.9876  -8.9531  -8.9415  -8.8968  -8.8775  -8.8647  -8.8310  -8.8070
    -8.7743  -8.7474  -8.6983  -8.6898  -8.6673  -8.6443  -8.5840  -8.5368
    -5.2496  -5.2343  -5.2310  -5.2039  -5.1964  -5.1791  -5.1614  -5.1524
    -5.1494  -5.1464  -5.1435  -5.1415  -5.1368  -5.1301  -5.1273  -5.1245
    -5.1185  -5.1167  -5.0511  -5.0370  -5.0363  -4.9909  -4.9801  -4.9670
    -4.3361  -4.1220  -3.8177  -3.7600  -3.5942  -3.5374  -3.2108  -2.9718
    -0.6664  -0.6381  -0.6204  -0.5530  -0.5199  -0.5011  -0.4120  -0.3648
    -0.1437  -0.0747   0.0111   0.0350   0.3756   0.4589   0.5155   0.5400
     0.5719   0.6150   0.6291   0.6615   0.7054   0.7309   0.7822   0.7882
     0.8591   0.8916   1.0214   1.0565   1.0874   1.1350   1.1571   1.1766
     1.2155   1.2422   1.2595   1.2850   1.3233   1.3568   1.3667   1.3953
     1.4095   1.4287   1.4562   1.4874   1.5189   1.5463   1.5702   1.5784
     1.6204   1.6389   1.6552   1.6606   1.7127   1.7247   1.7332   1.7541
     1.7647   1.7785   1.8143   1.8298   1.8930   1.9383   1.9772   1.9909
     2.0802   2.1223   2.2342   2.3061   2.4050   2.4540   2.7488   2.8558

          k =-0.3750-0.1250-0.1250 (132608 PWs)   bands (ev):

   -18.4776 -18.4250 -18.3847 -18.3845 -18.3804 -18.3736 -18.3693 -18.3640
   -18.3637 -18.3562 -18.3555 -18.2867 -18.2827 -18.2798 -18.2775 -18.2742
   -18.2730 -18.2720 -18.2677 -18.2656 -18.2640 -18.2585 -18.2285 -18.2278
   -18.2215 -18.2210 -18.2162 -18.2148 -18.2131 -18.2105 -18.2090 -18.2088
   -18.2018 -18.1992 -18.1953 -18.1906 -18.1855 -18.1837 -18.1823 -18.1816
   -18.1781 -18.1743 -18.1715 -18.1661 -18.1642 -18.1587 -18.1544 -18.1499
    -9.4233  -9.3665  -9.2456  -9.1978  -9.1609  -9.1144  -9.0334  -9.0083
    -8.9887  -8.9539  -8.9434  -8.8959  -8.8771  -8.8630  -8.8317  -8.8063
    -8.7759  -8.7479  -8.6970  -8.6910  -8.6667  -8.6437  -8.5842  -8.5370
    -5.2495  -5.2344  -5.2310  -5.2039  -5.1964  -5.1791  -5.1610  -5.1524
    -5.1496  -5.1468  -5.1438  -5.1417  -5.1361  -5.1301  -5.1263  -5.1253
    -5.1185  -5.1169  -5.0511  -5.0371  -5.0363  -4.9908  -4.9801  -4.9669
    -4.3352  -4.1221  -3.8304  -3.7456  -3.6132  -3.5178  -3.2114  -2.9750
    -0.6648  -0.6464  -0.6013  -0.5583  -0.5097  -0.4977  -0.4282  -0.3601
    -0.1367  -0.0903  -0.0063   0.0323   0.3727   0.4774   0.5172   0.5469
     0.5755   0.6093   0.6296   0.6591   0.7115   0.7331   0.7721   0.7877
     0.8650   0.8921   1.0119   1.0633   1.1010   1.1250   1.1539   1.1849
     1.2267   1.2439   1.2672   1.2993   1.3128   1.3285   1.3674   1.3825
     1.4045   1.4344   1.4551   1.4919   1.5343   1.5462   1.5751   1.5917
     1.6051   1.6345   1.6412   1.6769   1.6874   1.7207   1.7387   1.7600
     1.7623   1.7812   1.8135   1.8358   1.9027   1.9299   1.9764   1.9880
     2.0770   2.1265   2.2513   2.3004   2.3613   2.4767   2.7592   2.8490

          k = 0.3750 0.1250-0.1250 (132608 PWs)   bands (ev):

   -18.4776 -18.4250 -18.3847 -18.3845 -18.3804 -18.3736 -18.3693 -18.3640
   -18.3637 -18.3562 -18.3555 -18.2867 -18.2827 -18.2798 -18.2775 -18.2742
   -18.2730 -18.2720 -18.2677 -18.2656 -18.2640 -18.2585 -18.2285 -18.2278
   -18.2215 -18.2210 -18.2162 -18.2148 -18.2131 -18.2105 -18.2090 -18.2088
   -18.2018 -18.1992 -18.1953 -18.1906 -18.1855 -18.1837 -18.1823 -18.1816
   -18.1781 -18.1743 -18.1715 -18.1661 -18.1642 -18.1587 -18.1544 -18.1499
    -9.4234  -9.3668  -9.2447  -9.1964  -9.1618  -9.1158  -9.0361  -9.0094
    -8.9836  -8.9537  -8.9443  -8.8984  -8.8735  -8.8649  -8.8331  -8.8043
    -8.7743  -8.7492  -8.6979  -8.6909  -8.6641  -8.6465  -8.5838  -8.5369
    -5.2494  -5.2346  -5.2311  -5.2035  -5.1965  -5.1793  -5.1609  -5.1520
    -5.1495  -5.1472  -5.1438  -5.1412  -5.1368  -5.1301  -5.1273  -5.1242
    -5.1186  -5.1168  -5.0511  -5.0370  -5.0363  -4.9908  -4.9801  -4.9670
    -4.3361  -4.1227  -3.8166  -3.7605  -3.5928  -3.5378  -3.2132  -2.9702
    -0.6638  -0.6581  -0.6204  -0.5477  -0.5186  -0.4728  -0.4244  -0.3627
    -0.1679  -0.0789   0.0223   0.0530   0.3798   0.4792   0.4990   0.5300
     0.5689   0.6037   0.6310   0.6680   0.7095   0.7192   0.7580   0.8056
     0.8669   0.8967   1.0285   1.0617   1.0987   1.1209   1.1351   1.1753
     1.2073   1.2612   1.2812   1.2922   1.3173   1.3384   1.3591   1.3778
     1.4110   1.4414   1.4575   1.4983   1.5193   1.5479   1.5686   1.6014
     1.6053   1.6311   1.6377   1.6625   1.6891   1.7139   1.7375   1.7473
     1.7712   1.7898   1.8264   1.8531   1.9148   1.9471   1.9646   1.9855
     2.0668   2.1255   2.2584   2.2922   2.3789   2.4612   2.7376   2.8704

          k =-0.3750 0.1250 0.1250 (132608 PWs)   bands (ev):

   -18.4776 -18.4250 -18.3847 -18.3845 -18.3804 -18.3736 -18.3693 -18.3640
   -18.3637 -18.3562 -18.3555 -18.2867 -18.2827 -18.2798 -18.2775 -18.2742
   -18.2730 -18.2720 -18.2677 -18.2656 -18.2640 -18.2585 -18.2285 -18.2278
   -18.2215 -18.2210 -18.2162 -18.2148 -18.2131 -18.2105 -18.2090 -18.2088
   -18.2018 -18.1992 -18.1953 -18.1906 -18.1855 -18.1837 -18.1823 -18.1816
   -18.1781 -18.1743 -18.1715 -18.1661 -18.1642 -18.1587 -18.1544 -18.1499
    -9.4234  -9.3662  -9.2462  -9.1993  -9.1593  -9.1112  -9.0434  -9.0023
    -8.9871  -8.9530  -8.9425  -8.9007  -8.8772  -8.8613  -8.8328  -8.8037
    -8.7737  -8.7496  -8.7003  -8.6905  -8.6642  -8.6447  -8.5841  -8.5370
    -5.2494  -5.2346  -5.2311  -5.2035  -5.1964  -5.1793  -5.1611  -5.1521
    -5.1496  -5.1468  -5.1441  -5.1415  -5.1360  -5.1301  -5.1268  -5.1253
    -5.1185  -5.1167  -5.0511  -5.0371  -5.0363  -4.9908  -4.9800  -4.9670
    -4.3351  -4.1213  -3.8314  -3.7477  -3.6097  -3.5185  -3.2148  -2.9711
    -0.6712  -0.6357  -0.6150  -0.5665  -0.5277  -0.4809  -0.4142  -0.3702
    -0.1710  -0.0668   0.0325   0.0608   0.3813   0.4588   0.5053   0.5200
     0.5681   0.6059   0.6304   0.6753   0.7049   0.7143   0.7767   0.8018
     0.8682   0.8832   1.0254   1.0369   1.0826   1.1419   1.1660   1.1912
     1.2252   1.2468   1.2731   1.3014   1.3335   1.3501   1.3611   1.3748
     1.3993   1.4217   1.4396   1.4894   1.5271   1.5477   1.5654   1.5873
     1.6070   1.6263   1.6433   1.6824   1.7097   1.7244   1.7330   1.7523
     1.7571   1.7769   1.8224   1.8452   1.9186   1.9357   1.9693   1.9877
     2.0620   2.1268   2.2394   2.2995   2.3851   2.4760   2.7340   2.8768

          k =-0.1250 0.3750 0.1250 (132608 PWs)   bands (ev):

   -18.4776 -18.4250 -18.3847 -18.3845 -18.3804 -18.3736 -18.3693 -18.3640
   -18.3637 -18.3562 -18.3555 -18.2867 -18.2827 -18.2798 -18.2775 -18.2742
   -18.2730 -18.2720 -18.2677 -18.2656 -18.2640 -18.2585 -18.2285 -18.2278
   -18.2215 -18.2210 -18.2162 -18.2148 -18.2131 -18.2105 -18.2090 -18.2088
   -18.2018 -18.1992 -18.1953 -18.1906 -18.1855 -18.1837 -18.1823 -18.1816
   -18.1781 -18.1743 -18.1715 -18.1661 -18.1642 -18.1587 -18.1544 -18.1499
    -9.4380  -9.3254  -9.2865  -9.1896  -9.1477  -9.1090  -9.0542  -8.9990
    -8.9766  -8.9647  -8.9494  -8.9012  -8.8825  -8.8408  -8.8291  -8.8113
    -8.7942  -8.7411  -8.7021  -8.6842  -8.6539  -8.6453  -8.5888  -8.5393
    -5.2494  -5.2349  -5.2312  -5.2029  -5.1962  -5.1790  -5.1612  -5.1528
    -5.1495  -5.1480  -5.1432  -5.1407  -5.1349  -5.1302  -5.1276  -5.1253
    -5.1181  -5.1178  -5.0511  -5.0370  -5.0363  -4.9908  -4.9801  -4.9671
    -4.3377  -4.1261  -3.8143  -3.7593  -3.5940  -3.5457  -3.1927  -2.9653
    -0.7052  -0.6887  -0.6389  -0.5795  -0.5326  -0.4956  -0.4160  -0.3181
    -0.1373  -0.0469   0.0069   0.0633   0.4122   0.4756   0.5037   0.5229
     0.5655   0.6150   0.6306   0.6714   0.7080   0.7447   0.7809   0.8050
     0.8787   0.8959   1.0044   1.0422   1.0632   1.0956   1.1365   1.2157
     1.2358   1.2659   1.2811   1.3064   1.3169   1.3456   1.3799   1.3961
     1.4030   1.4290   1.4624   1.4761   1.5103   1.5398   1.5579   1.5686
     1.5953   1.6197   1.6450   1.6790   1.6986   1.7061   1.7366   1.7450
     1.7759   1.8152   1.8405   1.8571   1.9150   1.9478   1.9984   2.0138
     2.0650   2.0759   2.2010   2.2839   2.3710   2.5076   2.7241   2.8771

          k =-0.1250-0.3750-0.1250 (132608 PWs)   bands (ev):

   -18.4776 -18.4250 -18.3847 -18.3845 -18.3804 -18.3736 -18.3693 -18.3640
   -18.3637 -18.3562 -18.3555 -18.2867 -18.2827 -18.2798 -18.2775 -18.2742
   -18.2730 -18.2720 -18.2677 -18.2656 -18.2640 -18.2585 -18.2285 -18.2278
   -18.2215 -18.2210 -18.2162 -18.2148 -18.2131 -18.2105 -18.2090 -18.2088
   -18.2018 -18.1992 -18.1953 -18.1906 -18.1855 -18.1837 -18.1823 -18.1816
   -18.1781 -18.1743 -18.1715 -18.1661 -18.1642 -18.1587 -18.1544 -18.1499
    -9.4380  -9.3264  -9.2851  -9.1889  -9.1507  -9.1075  -9.0498  -9.0053
    -8.9804  -8.9581  -8.9508  -8.9026  -8.8720  -8.8491  -8.8300  -8.8153
    -8.7893  -8.7416  -8.7018  -8.6828  -8.6562  -8.6441  -8.5888  -8.5392
    -5.2495  -5.2347  -5.2311  -5.2033  -5.1962  -5.1787  -5.1611  -5.1530
    -5.1495  -5.1480  -5.1432  -5.1408  -5.1349  -5.1302  -5.1276  -5.1249
    -5.1184  -5.1178  -5.0511  -5.0369  -5.0364  -4.9907  -4.9802  -4.9670
    -4.3378  -4.1270  -3.8147  -3.7563  -3.5980  -3.5421  -3.1926  -2.9676
    -0.7139  -0.6749  -0.6312  -0.5722  -0.5336  -0.4839  -0.4350  -0.3209
    -0.1341  -0.0509  -0.0122   0.0510   0.4239   0.4794   0.4947   0.5283
     0.5682   0.6074   0.6326   0.6833   0.7108   0.7485   0.7579   0.8142
     0.8752   0.9084   1.0007   1.0493   1.0949   1.1187   1.1518   1.1638
     1.2317   1.2438   1.2790   1.2943   1.3321   1.3458   1.3697   1.3972
     1.4143   1.4380   1.4669   1.4803   1.5043   1.5385   1.5568   1.5742
     1.5829   1.6404   1.6573   1.6791   1.6958   1.7070   1.7159   1.7499
     1.7774   1.7996   1.8391   1.8466   1.9307   1.9419   1.9993   2.0091
     2.0722   2.0811   2.2014   2.3053   2.3370   2.5025   2.7321   2.8722

          k = 0.1250 0.3750-0.1250 (132608 PWs)   bands (ev):

   -18.4776 -18.4250 -18.3847 -18.3845 -18.3804 -18.3736 -18.3693 -18.3640
   -18.3637 -18.3562 -18.3555 -18.2867 -18.2827 -18.2798 -18.2775 -18.2742
   -18.2730 -18.2720 -18.2677 -18.2656 -18.2640 -18.2585 -18.2285 -18.2278
   -18.2215 -18.2210 -18.2162 -18.2148 -18.2131 -18.2105 -18.2090 -18.2088
   -18.2018 -18.1992 -18.1953 -18.1906 -18.1855 -18.1837 -18.1823 -18.1816
   -18.1781 -18.1743 -18.1715 -18.1661 -18.1642 -18.1587 -18.1544 -18.1499
    -9.4382  -9.3265  -9.2841  -9.1903  -9.1496  -9.1085  -9.0494  -9.0042
    -8.9754  -8.9655  -8.9502  -8.9014  -8.8778  -8.8451  -8.8328  -8.8072
    -8.7917  -8.7432  -8.6992  -8.6835  -8.6570  -8.6459  -8.5880  -8.5392
    -5.2494  -5.2348  -5.2312  -5.2029  -5.1963  -5.1790  -5.1610  -5.1529
    -5.1493  -5.1481  -5.1429  -5.1407  -5.1357  -5.1303  -5.1279  -5.1243
    -5.1184  -5.1178  -5.0511  -5.0369  -5.0363  -4.9907  -4.9802  -4.9670
    -4.3407  -4.1193  -3.8254  -3.7580  -3.5837  -3.5443  -3.2039  -2.9601
    -0.7009  -0.6909  -0.6471  -0.5844  -0.5188  -0.4849  -0.4226  -0.3202
    -0.1357  -0.0453   0.0032   0.0521   0.4261   0.4729   0.4914   0.5209
     0.5688   0.6154   0.6366   0.6862   0.6942   0.7381   0.7773   0.8077
     0.8764   0.8967   1.0251   1.0419   1.0658   1.0876   1.1471   1.2051
     1.2392   1.2544   1.2840   1.3068   1.3350   1.3478   1.3589   1.3783
     1.4016   1.4350   1.4516   1.4713   1.4981   1.5500   1.5618   1.5758
     1.5931   1.6419   1.6504   1.6794   1.6988   1.7140   1.7337   1.7427
     1.7729   1.8006   1.8313   1.8579   1.9334   1.9567   2.0037   2.0205
     2.0611   2.0757   2.1628   2.3248   2.3721   2.4895   2.7165   2.8774

          k = 0.1250-0.3750 0.1250 (132608 PWs)   bands (ev):

   -18.4776 -18.4250 -18.3847 -18.3845 -18.3804 -18.3736 -18.3693 -18.3640
   -18.3637 -18.3562 -18.3555 -18.2867 -18.2827 -18.2798 -18.2775 -18.2742
   -18.2730 -18.2720 -18.2677 -18.2656 -18.2640 -18.2585 -18.2285 -18.2278
   -18.2215 -18.2210 -18.2162 -18.2148 -18.2131 -18.2105 -18.2090 -18.2088
   -18.2018 -18.1992 -18.1953 -18.1906 -18.1855 -18.1837 -18.1823 -18.1816
   -18.1781 -18.1743 -18.1715 -18.1661 -18.1642 -18.1587 -18.1544 -18.1499
    -9.4383  -9.3254  -9.2847  -9.1926  -9.1504  -9.1013  -9.0557  -9.0008
    -8.9834  -8.9588  -8.9496  -8.9015  -8.8754  -8.8487  -8.8313  -8.8138
    -8.7858  -8.7429  -8.6999  -8.6831  -8.6590  -8.6440  -8.5882  -8.5391
    -5.2496  -5.2346  -5.2312  -5.2033  -5.1962  -5.1787  -5.1614  -5.1532
    -5.1493  -5.1475  -5.1429  -5.1408  -5.1356  -5.1303  -5.1280  -5.1245
    -5.1184  -5.1176  -5.0511  -5.0369  -5.0363  -4.9908  -4.9802  -4.9670
    -4.3407  -4.1188  -3.8267  -3.7574  -3.5868  -3.5401  -3.2050  -2.9599
    -0.7131  -0.6741  -0.6309  -0.5858  -0.5342  -0.4896  -0.4269  -0.3242
    -0.1403  -0.0336   0.0122   0.0546   0.4105   0.4723   0.4965   0.5176
     0.5643   0.6108   0.6317   0.6867   0.7041   0.7499   0.7749   0.7976
     0.8765   0.8989   1.0078   1.0383   1.0889   1.1248   1.1469   1.1680
     1.2432   1.2601   1.2788   1.2941   1.3204   1.3434   1.3739   1.3832
     1.4198   1.4407   1.4572   1.5001   1.5152   1.5265   1.5546   1.5748
     1.5993   1.6266   1.6443   1.6742   1.6949   1.7081   1.7247   1.7441
     1.7736   1.8146   1.8262   1.8572   1.9202   1.9588   1.9953   2.0249
     2.0620   2.0715   2.1791   2.3100   2.3861   2.4861   2.7236   2.8747

          k =-0.1250-0.3750 0.3750 (132616 PWs)   bands (ev):

   -18.4776 -18.4250 -18.3847 -18.3845 -18.3804 -18.3736 -18.3693 -18.3640
   -18.3637 -18.3562 -18.3555 -18.2867 -18.2827 -18.2798 -18.2775 -18.2742
   -18.2730 -18.2720 -18.2677 -18.2656 -18.2640 -18.2585 -18.2285 -18.2278
   -18.2214 -18.2211 -18.2162 -18.2148 -18.2131 -18.2105 -18.2090 -18.2088
   -18.2018 -18.1993 -18.1953 -18.1906 -18.1855 -18.1837 -18.1823 -18.1816
   -18.1781 -18.1743 -18.1715 -18.1661 -18.1642 -18.1587 -18.1544 -18.1499
    -9.4310  -9.3222  -9.2714  -9.2127  -9.1518  -9.1280  -9.0571  -9.0122
    -8.9748  -8.9548  -8.9458  -8.8963  -8.8746  -8.8493  -8.8310  -8.7941
    -8.7773  -8.7376  -8.6955  -8.6817  -8.6686  -8.6523  -8.5918  -8.5420
    -5.2493  -5.2345  -5.2311  -5.2034  -5.1963  -5.1807  -5.1610  -5.1512
    -5.1490  -5.1465  -5.1436  -5.1417  -5.1357  -5.1307  -5.1293  -5.1235
    -5.1184  -5.1171  -5.0514  -5.0370  -5.0362  -4.9908  -4.9805  -4.9662
    -4.2393  -4.0035  -3.9364  -3.7227  -3.6902  -3.4589  -3.3808  -3.1288
    -0.6707  -0.6146  -0.5712  -0.5062  -0.3363  -0.2255  -0.1696  -0.1290
    -0.0831   0.0061   0.0646   0.1642   0.3597   0.4218   0.4529   0.4895
     0.5161   0.5495   0.6062   0.6165   0.6430   0.6592   0.7099   0.7538
     0.7875   0.9007   0.9192   0.9677   1.0013   1.0204   1.0794   1.1147
     1.1637   1.1917   1.2174   1.2483   1.2981   1.3247   1.3539   1.3999
     1.4190   1.4369   1.4873   1.5134   1.5368   1.5567   1.5826   1.6093
     1.6211   1.6572   1.6695   1.6863   1.7159   1.7485   1.7662   1.7840
     1.8070   1.8336   1.8480   1.8682   1.8893   1.9209   1.9710   1.9861
     1.9999   2.0170   2.0666   2.1450   2.2687   2.4057   2.4596   2.5660

          k =-0.1250 0.3750-0.3750 (132616 PWs)   bands (ev):

   -18.4776 -18.4250 -18.3847 -18.3845 -18.3804 -18.3736 -18.3693 -18.3640
   -18.3637 -18.3562 -18.3555 -18.2867 -18.2827 -18.2798 -18.2775 -18.2742
   -18.2730 -18.2720 -18.2677 -18.2656 -18.2640 -18.2585 -18.2285 -18.2278
   -18.2214 -18.2211 -18.2162 -18.2148 -18.2131 -18.2105 -18.2090 -18.2088
   -18.2018 -18.1992 -18.1953 -18.1906 -18.1855 -18.1837 -18.1823 -18.1816
   -18.1781 -18.1743 -18.1715 -18.1661 -18.1642 -18.1587 -18.1544 -18.1499
    -9.4312  -9.3214  -9.2714  -9.2138  -9.1568  -9.1200  -9.0627  -9.0034
    -8.9830  -8.9527  -8.9454  -8.8964  -8.8737  -8.8508  -8.8272  -8.8020
    -8.7724  -8.7373  -8.6961  -8.6803  -8.6713  -8.6506  -8.5921  -8.5419
    -5.2494  -5.2342  -5.2310  -5.2037  -5.1962  -5.1804  -5.1613  -5.1519
    -5.1489  -5.1459  -5.1437  -5.1414  -5.1357  -5.1307  -5.1293  -5.1238
    -5.1184  -5.1169  -5.0514  -5.0369  -5.0362  -4.9909  -4.9804  -4.9662
    -4.2396  -4.0032  -3.9351  -3.7188  -3.6979  -3.4545  -3.3818  -3.1296
    -0.6801  -0.6130  -0.5548  -0.5076  -0.3317  -0.2285  -0.1903  -0.1216
    -0.0765   0.0114   0.0624   0.1523   0.3543   0.4153   0.4572   0.4950
     0.5148   0.5370   0.6027   0.6222   0.6497   0.6661   0.7252   0.7559
     0.7862   0.8812   0.9327   0.9745   0.9930   1.0227   1.0820   1.1223
     1.1512   1.2012   1.2240   1.2525   1.2823   1.3055   1.3612   1.3995
     1.4414   1.4526   1.4921   1.5011   1.5318   1.5562   1.5758   1.6063
     1.6307   1.6455   1.6685   1.6866   1.7132   1.7388   1.7547   1.7947
     1.8112   1.8338   1.8475   1.8720   1.8838   1.9144   1.9761   1.9936
     1.9971   2.0040   2.0887   2.1354   2.2517   2.4105   2.4690   2.5734

          k = 0.1250-0.3750-0.3750 (132616 PWs)   bands (ev):

   -18.4776 -18.4250 -18.3847 -18.3845 -18.3804 -18.3736 -18.3693 -18.3640
   -18.3637 -18.3562 -18.3555 -18.2867 -18.2827 -18.2798 -18.2775 -18.2742
   -18.2730 -18.2720 -18.2677 -18.2656 -18.2640 -18.2585 -18.2285 -18.2278
   -18.2214 -18.2211 -18.2162 -18.2148 -18.2131 -18.2105 -18.2090 -18.2088
   -18.2018 -18.1993 -18.1953 -18.1906 -18.1855 -18.1837 -18.1823 -18.1816
   -18.1781 -18.1743 -18.1715 -18.1661 -18.1642 -18.1587 -18.1544 -18.1499
    -9.4308  -9.3214  -9.2747  -9.2091  -9.1510  -9.1310  -9.0606  -8.9995
    -8.9827  -8.9555  -8.9448  -8.8956  -8.8799  -8.8450  -8.8253  -8.8016
    -8.7763  -8.7363  -8.6997  -8.6833  -8.6638  -8.6511  -8.5928  -8.5420
    -5.2493  -5.2345  -5.2310  -5.2034  -5.1962  -5.1806  -5.1612  -5.1515
    -5.1491  -5.1465  -5.1439  -5.1414  -5.1349  -5.1309  -5.1291  -5.1241
    -5.1184  -5.1170  -5.0514  -5.0370  -5.0362  -4.9909  -4.9804  -4.9662
    -4.2316  -4.0449  -3.8882  -3.7181  -3.7051  -3.5028  -3.3268  -3.1428
    -0.6716  -0.6251  -0.5597  -0.5112  -0.3168  -0.2326  -0.1951  -0.1290
    -0.0540   0.0027   0.0563   0.1499   0.3772   0.4209   0.4644   0.4949
     0.5160   0.5484   0.5722   0.6341   0.6446   0.6705   0.7252   0.7516
     0.7741   0.8997   0.9123   0.9580   0.9888   1.0155   1.1006   1.1164
     1.1527   1.1771   1.2383   1.2495   1.2873   1.3347   1.3658   1.4001
     1.4344   1.4501   1.4971   1.5050   1.5179   1.5362   1.5722   1.6069
     1.6318   1.6493   1.6727   1.6854   1.7182   1.7532   1.7643   1.7860
     1.8061   1.8285   1.8456   1.8737   1.9063   1.9292   1.9520   1.9715
     1.9994   2.0274   2.0633   2.1419   2.2650   2.3713   2.5102   2.5649

          k = 0.3750 0.1250-0.3750 (132616 PWs)   bands (ev):

   -18.4776 -18.4250 -18.3847 -18.3845 -18.3804 -18.3736 -18.3693 -18.3640
   -18.3637 -18.3562 -18.3555 -18.2867 -18.2827 -18.2798 -18.2775 -18.2742
   -18.2730 -18.2720 -18.2677 -18.2656 -18.2640 -18.2585 -18.2285 -18.2278
   -18.2214 -18.2211 -18.2162 -18.2148 -18.2131 -18.2105 -18.2090 -18.2088
   -18.2018 -18.1992 -18.1953 -18.1906 -18.1855 -18.1837 -18.1823 -18.1816
   -18.1781 -18.1743 -18.1715 -18.1661 -18.1642 -18.1587 -18.1544 -18.1499
    -9.4156  -9.3613  -9.2389  -9.2132  -9.1629  -9.1243  -9.0574  -9.0214
    -8.9806  -8.9488  -8.9351  -8.8972  -8.8683  -8.8586  -8.8276  -8.7910
    -8.7691  -8.7465  -8.6963  -8.6891  -8.6703  -8.6505  -8.5892  -8.5408
    -5.2495  -5.2346  -5.2311  -5.2031  -5.1963  -5.1806  -5.1614  -5.1515
    -5.1494  -5.1457  -5.1435  -5.1414  -5.1365  -5.1304  -5.1283  -5.1243
    -5.1184  -5.1172  -5.0514  -5.0371  -5.0361  -4.9909  -4.9803  -4.9662
    -4.2287  -4.0244  -3.9268  -3.7168  -3.6850  -3.4605  -3.3837  -3.1485
    -0.6308  -0.5962  -0.4797  -0.4534  -0.3839  -0.2705  -0.2110  -0.1555
    -0.0975  -0.0096   0.0819   0.1882   0.3519   0.3959   0.4618   0.5003
     0.5149   0.5493   0.5826   0.6026   0.6465   0.6668   0.7115   0.7401
     0.7868   0.8890   0.9370   0.9699   0.9991   1.0158   1.0946   1.1023
     1.1707   1.2011   1.2405   1.2476   1.2686   1.2965   1.3202   1.3728
     1.4312   1.4611   1.4801   1.5223   1.5309   1.5645   1.5883   1.6063
     1.6499   1.6642   1.6780   1.6947   1.7193   1.7412   1.7534   1.7753
     1.7965   1.8275   1.8538   1.8692   1.8870   1.9095   1.9358   1.9652
     1.9893   2.0513   2.0697   2.1463   2.2939   2.4046   2.4849   2.5891

          k =-0.3750-0.1250-0.3750 (132616 PWs)   bands (ev):

   -18.4776 -18.4250 -18.3847 -18.3845 -18.3804 -18.3736 -18.3693 -18.3640
   -18.3637 -18.3562 -18.3555 -18.2867 -18.2827 -18.2798 -18.2775 -18.2742
   -18.2730 -18.2720 -18.2677 -18.2656 -18.2640 -18.2585 -18.2285 -18.2278
   -18.2214 -18.2211 -18.2162 -18.2148 -18.2131 -18.2105 -18.2090 -18.2088
   -18.2018 -18.1992 -18.1953 -18.1906 -18.1855 -18.1837 -18.1823 -18.1816
   -18.1781 -18.1743 -18.1715 -18.1661 -18.1642 -18.1587 -18.1544 -18.1499
    -9.4155  -9.3610  -9.2410  -9.2121  -9.1646  -9.1222  -9.0525  -9.0261
    -8.9815  -8.9478  -8.9351  -8.8963  -8.8705  -8.8572  -8.8260  -8.7917
    -8.7727  -8.7443  -8.6956  -8.6890  -8.6729  -8.6477  -8.5896  -8.5408
    -5.2496  -5.2344  -5.2310  -5.2035  -5.1963  -5.1804  -5.1615  -5.1517
    -5.1495  -5.1454  -5.1435  -5.1419  -5.1357  -5.1305  -5.1277  -5.1249
    -5.1184  -5.1173  -5.0513  -5.0372  -5.0361  -4.9909  -4.9804  -4.9661
    -4.2264  -4.0264  -3.9275  -3.7286  -3.6778  -3.4583  -3.3719  -3.1580
    -0.6303  -0.5848  -0.4823  -0.4620  -0.3727  -0.2522  -0.2157  -0.1612
    -0.0836  -0.0050   0.0543   0.0938   0.3554   0.4436   0.4737   0.5099
     0.5302   0.5708   0.5980   0.6084   0.6238   0.6683   0.7181   0.7411
     0.7764   0.8769   0.9382   0.9659   1.0044   1.0269   1.0728   1.1126
     1.1442   1.2074   1.2331   1.2549   1.2824   1.3045   1.3294   1.3854
     1.4145   1.4524   1.4707   1.5299   1.5384   1.5648   1.5932   1.6134
     1.6396   1.6598   1.6703   1.6841   1.7241   1.7499   1.7729   1.7857
     1.7941   1.8163   1.8319   1.8535   1.8779   1.8979   1.9384   1.9730
     2.0036   2.0592   2.0635   2.1411   2.3077   2.3815   2.5278   2.5638

          k = 0.3750-0.1250 0.3750 (132616 PWs)   bands (ev):

   -18.4776 -18.4250 -18.3847 -18.3845 -18.3804 -18.3736 -18.3693 -18.3640
   -18.3637 -18.3562 -18.3555 -18.2867 -18.2827 -18.2798 -18.2775 -18.2742
   -18.2730 -18.2720 -18.2677 -18.2656 -18.2640 -18.2585 -18.2285 -18.2278
   -18.2214 -18.2211 -18.2162 -18.2148 -18.2131 -18.2105 -18.2090 -18.2088
   -18.2018 -18.1992 -18.1953 -18.1906 -18.1855 -18.1837 -18.1823 -18.1816
   -18.1781 -18.1743 -18.1715 -18.1661 -18.1642 -18.1587 -18.1544 -18.1499
    -9.4159  -9.3607  -9.2371  -9.2162  -9.1623  -9.1262  -9.0535  -9.0201
    -8.9853  -8.9476  -8.9335  -8.8976  -8.8695  -8.8594  -8.8246  -8.7914
    -8.7730  -8.7438  -8.6955  -8.6878  -8.6737  -8.6488  -8.5895  -8.5407
    -5.2497  -5.2343  -5.2310  -5.2035  -5.1962  -5.1804  -5.1617  -5.1522
    -5.1492  -5.1451  -5.1434  -5.1412  -5.1365  -5.1304  -5.1280  -5.1248
    -5.1183  -5.1171  -5.0514  -5.0371  -5.0361  -4.9911  -4.9803  -4.9662
    -4.2289  -4.0252  -3.9220  -3.7224  -3.6858  -3.4678  -3.3694  -3.1530
    -0.6297  -0.6003  -0.4875  -0.4550  -0.3640  -0.2596  -0.2089  -0.1616
    -0.0710  -0.0098   0.0603   0.1066   0.3608   0.4308   0.4669   0.4968
     0.5258   0.5681   0.5991   0.6082   0.6310   0.6654   0.7065   0.7523
     0.7893   0.8747   0.9396   0.9610   1.0103   1.0249   1.0614   1.1036
     1.1424   1.2119   1.2416   1.2577   1.2665   1.3089   1.3340   1.3874
     1.4202   1.4510   1.4833   1.5156   1.5415   1.5607   1.5883   1.6022
     1.6393   1.6687   1.6889   1.6992   1.7231   1.7410   1.7609   1.7777
     1.7974   1.8098   1.8294   1.8601   1.8678   1.9166   1.9300   1.9748
     2.0116   2.0537   2.0660   2.1536   2.3016   2.3777   2.5163   2.5807

          k =-0.3750 0.1250 0.3750 (132616 PWs)   bands (ev):

   -18.4776 -18.4250 -18.3847 -18.3845 -18.3804 -18.3736 -18.3693 -18.3640
   -18.3637 -18.3562 -18.3555 -18.2867 -18.2827 -18.2798 -18.2775 -18.2742
   -18.2730 -18.2720 -18.2677 -18.2656 -18.2640 -18.2585 -18.2285 -18.2278
   -18.2214 -18.2211 -18.2162 -18.2148 -18.2131 -18.2105 -18.2090 -18.2088
   -18.2018 -18.1992 -18.1953 -18.1906 -18.1855 -18.1837 -18.1823 -18.1816
   -18.1781 -18.1743 -18.1715 -18.1661 -18.1642 -18.1587 -18.1544 -18.1499
    -9.4155  -9.3607  -9.2414  -9.2128  -9.1640  -9.1196  -9.0628  -9.0136
    -8.9860  -8.9478  -8.9339  -8.8996  -8.8704  -8.8567  -8.8263  -8.7884
    -8.7708  -8.7472  -8.6987  -8.6885  -8.6701  -8.6486  -8.5896  -8.5409
    -5.2495  -5.2347  -5.2311  -5.2031  -5.1962  -5.1806  -5.1614  -5.1519
    -5.1495  -5.1457  -5.1435  -5.1414  -5.1357  -5.1305  -5.1277  -5.1253
    -5.1182  -5.1172  -5.0513  -5.0372  -5.0361  -4.9910  -4.9803  -4.9662
    -4.2265  -4.0234  -3.9311  -3.7253  -3.6824  -3.4478  -3.3856  -3.1522
    -0.6252  -0.6024  -0.4874  -0.4535  -0.3772  -0.2673  -0.2243  -0.1540
    -0.0812  -0.0219   0.0918   0.1918   0.3543   0.3954   0.4411   0.5007
     0.5123   0.5499   0.5872   0.6127   0.6447   0.6675   0.7304   0.7398
     0.7813   0.8832   0.9396   0.9454   0.9949   1.0262   1.0867   1.1204
     1.1511   1.1978   1.2290   1.2601   1.2905   1.3089   1.3427   1.3811
     1.4190   1.4430   1.4670   1.5187   1.5468   1.5573   1.5873   1.6064
     1.6459   1.6545   1.6791   1.6937   1.7202   1.7502   1.7610   1.7677
     1.8036   1.8261   1.8479   1.8559   1.8868   1.9128   1.9325   1.9651
     1.9854   2.0522   2.0733   2.1511   2.2806   2.3990   2.5039   2.5978

          k = 0.3750-0.3750 0.1250 (132616 PWs)   bands (ev):

   -18.4776 -18.4250 -18.3847 -18.3845 -18.3804 -18.3736 -18.3693 -18.3640
   -18.3637 -18.3562 -18.3555 -18.2867 -18.2827 -18.2798 -18.2775 -18.2742
   -18.2730 -18.2720 -18.2677 -18.2656 -18.2640 -18.2585 -18.2285 -18.2278
   -18.2215 -18.2210 -18.2162 -18.2148 -18.2131 -18.2105 -18.2090 -18.2088
   -18.2018 -18.1992 -18.1953 -18.1906 -18.1855 -18.1837 -18.1823 -18.1816
   -18.1781 -18.1743 -18.1715 -18.1661 -18.1642 -18.1587 -18.1544 -18.1499
    -9.4141  -9.3574  -9.2643  -9.1976  -9.1589  -9.1064  -9.0680  -9.0307
    -8.9853  -8.9493  -8.9388  -8.8830  -8.8768  -8.8527  -8.8204  -8.8100
    -8.7508  -8.7430  -8.7047  -8.6925  -8.6671  -8.6520  -8.5886  -8.5415
    -5.2494  -5.2343  -5.2311  -5.2040  -5.1963  -5.1791  -5.1614  -5.1525
    -5.1492  -5.1467  -5.1434  -5.1414  -5.1357  -5.1303  -5.1284  -5.1243
    -5.1182  -5.1171  -5.0513  -5.0369  -5.0363  -4.9908  -4.9800  -4.9673
    -4.2154  -4.0320  -3.9462  -3.7591  -3.6351  -3.4587  -3.3566  -3.1678
    -0.6431  -0.5717  -0.5542  -0.5039  -0.3719  -0.2744  -0.1669  -0.1238
    -0.0573   0.0202   0.0622   0.1865   0.3005   0.3930   0.4503   0.4956
     0.5246   0.5873   0.6116   0.6362   0.6484   0.6733   0.7166   0.7493
     0.7909   0.8727   0.9213   0.9503   1.0036   1.0413   1.0672   1.1284
     1.1524   1.2058   1.2276   1.2493   1.2734   1.2812   1.3044   1.3444
     1.3937   1.4138   1.4647   1.5039   1.5412   1.5818   1.6030   1.6224
     1.6568   1.6693   1.6972   1.7156   1.7262   1.7459   1.7642   1.7794
     1.7951   1.8213   1.8376   1.8636   1.8702   1.9160   1.9605   1.9675
     2.0135   2.0259   2.0685   2.1489   2.2889   2.4330   2.4849   2.6075

          k =-0.3750-0.3750-0.1250 (132616 PWs)   bands (ev):

   -18.4776 -18.4250 -18.3847 -18.3845 -18.3804 -18.3736 -18.3693 -18.3640
   -18.3637 -18.3562 -18.3555 -18.2867 -18.2827 -18.2798 -18.2775 -18.2742
   -18.2730 -18.2720 -18.2677 -18.2656 -18.2640 -18.2585 -18.2285 -18.2278
   -18.2215 -18.2210 -18.2162 -18.2148 -18.2131 -18.2105 -18.2090 -18.2088
   -18.2018 -18.1992 -18.1953 -18.1906 -18.1855 -18.1837 -18.1823 -18.1816
   -18.1781 -18.1743 -18.1715 -18.1661 -18.1642 -18.1587 -18.1544 -18.1499
    -9.4136  -9.3580  -9.2646  -9.1984  -9.1571  -9.1087  -9.0618  -9.0353
    -8.9844  -8.9503  -8.9398  -8.8851  -8.8704  -8.8548  -8.8211  -8.8094
    -8.7533  -8.7418  -8.7041  -8.6933  -8.6666  -8.6512  -8.5887  -8.5416
    -5.2493  -5.2344  -5.2310  -5.2040  -5.1963  -5.1791  -5.1611  -5.1526
    -5.1493  -5.1470  -5.1437  -5.1416  -5.1349  -5.1303  -5.1282  -5.1246
    -5.1182  -5.1173  -5.0512  -5.0369  -5.0363  -4.9907  -4.9800  -4.9673
    -4.2117  -4.0429  -3.9356  -3.7716  -3.6292  -3.4511  -3.3540  -3.1750
    -0.6434  -0.5825  -0.5408  -0.5037  -0.3297  -0.2985  -0.1619  -0.1112
    -0.0937  -0.0037   0.0854   0.1251   0.3315   0.3944   0.4732   0.4873
     0.5500   0.5834   0.6101   0.6383   0.6599   0.6880   0.7083   0.7299
     0.7891   0.8735   0.9235   0.9482   1.0207   1.0510   1.0672   1.0999
     1.1593   1.1864   1.2182   1.2488   1.2758   1.2978   1.3156   1.3645
     1.3754   1.4129   1.4741   1.4923   1.5350   1.5764   1.5926   1.6152
     1.6658   1.6803   1.6968   1.7142   1.7294   1.7483   1.7688   1.7788
     1.8009   1.8170   1.8240   1.8540   1.8981   1.9222   1.9462   1.9705
     1.9967   2.0357   2.0816   2.1176   2.2929   2.4226   2.5096   2.6002

          k = 0.3750 0.3750-0.1250 (132616 PWs)   bands (ev):

   -18.4776 -18.4250 -18.3847 -18.3845 -18.3804 -18.3736 -18.3693 -18.3640
   -18.3637 -18.3562 -18.3555 -18.2867 -18.2827 -18.2798 -18.2775 -18.2742
   -18.2730 -18.2720 -18.2677 -18.2656 -18.2640 -18.2585 -18.2285 -18.2278
   -18.2215 -18.2210 -18.2162 -18.2148 -18.2131 -18.2105 -18.2090 -18.2088
   -18.2018 -18.1992 -18.1953 -18.1906 -18.1855 -18.1837 -18.1823 -18.1816
   -18.1781 -18.1743 -18.1715 -18.1661 -18.1642 -18.1587 -18.1544 -18.1499
    -9.4138  -9.3583  -9.2644  -9.1932  -9.1618  -9.1109  -9.0645  -9.0293
    -8.9840  -8.9519  -8.9403  -8.8884  -8.8692  -8.8516  -8.8216  -8.8095
    -8.7520  -8.7441  -8.7021  -8.6936  -8.6650  -8.6542  -8.5883  -8.5416
    -5.2492  -5.2346  -5.2312  -5.2036  -5.1964  -5.1793  -5.1610  -5.1522
    -5.1492  -5.1474  -5.1434  -5.1413  -5.1357  -5.1303  -5.1284  -5.1240
    -5.1182  -5.1173  -5.0513  -5.0369  -5.0363  -4.9907  -4.9800  -4.9674
    -4.2145  -4.0396  -3.9360  -3.7620  -3.6382  -3.4550  -3.3579  -3.1675
    -0.6491  -0.5891  -0.5404  -0.5062  -0.3335  -0.2876  -0.1577  -0.1150
    -0.0851  -0.0120   0.0817   0.1649   0.3324   0.3983   0.4701   0.4946
     0.5341   0.5675   0.5944   0.6432   0.6559   0.6932   0.7051   0.7311
     0.8092   0.8611   0.9140   0.9444   1.0088   1.0437   1.0593   1.1055
     1.1728   1.1887   1.2335   1.2497   1.2755   1.2949   1.3065   1.3563
     1.3843   1.4120   1.4463   1.4944   1.5378   1.5889   1.6144   1.6295
     1.6496   1.6806   1.6848   1.7079   1.7288   1.7484   1.7706   1.7868
     1.7982   1.8103   1.8393   1.8733   1.8885   1.9277   1.9553   1.9654
     1.9970   2.0323   2.0694   2.1310   2.3032   2.4049   2.5016   2.6073

          k =-0.3750 0.3750 0.1250 (132616 PWs)   bands (ev):

   -18.4776 -18.4250 -18.3847 -18.3845 -18.3804 -18.3736 -18.3693 -18.3640
   -18.3637 -18.3562 -18.3555 -18.2867 -18.2827 -18.2798 -18.2775 -18.2742
   -18.2730 -18.2720 -18.2677 -18.2656 -18.2640 -18.2585 -18.2285 -18.2278
   -18.2215 -18.2210 -18.2162 -18.2148 -18.2131 -18.2105 -18.2090 -18.2088
   -18.2018 -18.1992 -18.1953 -18.1906 -18.1855 -18.1837 -18.1823 -18.1816
   -18.1781 -18.1743 -18.1715 -18.1661 -18.1642 -18.1587 -18.1544 -18.1499
    -9.4138  -9.3574  -9.2661  -9.1972  -9.1574  -9.1038  -9.0749  -9.0241
    -8.9856  -8.9515  -8.9392  -8.8888  -8.8749  -8.8465  -8.8219  -8.8088
    -8.7527  -8.7424  -8.7052  -8.6945  -8.6647  -8.6517  -8.5888  -8.5417
    -5.2492  -5.2346  -5.2312  -5.2036  -5.1962  -5.1793  -5.1612  -5.1523
    -5.1494  -5.1470  -5.1437  -5.1414  -5.1349  -5.1303  -5.1282  -5.1250
    -5.1180  -5.1173  -5.0512  -5.0369  -5.0363  -4.9907  -4.9800  -4.9674
    -4.2122  -4.0348  -3.9462  -3.7690  -3.6273  -3.4569  -3.3529  -3.1713
    -0.6523  -0.5697  -0.5556  -0.4948  -0.3718  -0.2756  -0.1796  -0.1187
    -0.0588   0.0192   0.0609   0.2076   0.3026   0.4028   0.4588   0.4975
     0.5198   0.5612   0.6077   0.6446   0.6530   0.6795   0.7078   0.7437
     0.7957   0.8740   0.9137   0.9598   0.9954   1.0147   1.0665   1.1280
     1.1649   1.2110   1.2316   1.2444   1.2689   1.2865   1.3292   1.3645
     1.3748   1.4094   1.4729   1.4877   1.5351   1.5739   1.6000   1.6155
     1.6544   1.6695   1.7024   1.7155   1.7203   1.7442   1.7642   1.7757
     1.7997   1.8343   1.8477   1.8679   1.8823   1.9217   1.9566   1.9602
     2.0079   2.0211   2.0670   2.1330   2.3052   2.4302   2.4875   2.6086

          k =-0.3750-0.3750 0.3750 (132612 PWs)   bands (ev):

   -18.4776 -18.4250 -18.3847 -18.3845 -18.3804 -18.3736 -18.3693 -18.3640
   -18.3637 -18.3562 -18.3555 -18.2867 -18.2827 -18.2798 -18.2775 -18.2742
   -18.2730 -18.2720 -18.2677 -18.2656 -18.2640 -18.2585 -18.2285 -18.2278
   -18.2214 -18.2211 -18.2162 -18.2148 -18.2131 -18.2105 -18.2090 -18.2088
   -18.2018 -18.1992 -18.1953 -18.1906 -18.1855 -18.1837 -18.1823 -18.1816
   -18.1781 -18.1743 -18.1715 -18.1661 -18.1642 -18.1587 -18.1544 -18.1499
    -9.4074  -9.3539  -9.2550  -9.1928  -9.1704  -9.1289  -9.0846  -9.0527
    -8.9723  -8.9411  -8.9326  -8.8834  -8.8682  -8.8459  -8.8179  -8.7948
    -8.7511  -8.7402  -8.6986  -8.6908  -8.6721  -8.6635  -8.5922  -8.5436
    -5.2494  -5.2347  -5.2312  -5.2033  -5.1963  -5.1806  -5.1613  -5.1513
    -5.1492  -5.1460  -5.1435  -5.1419  -5.1359  -5.1308  -5.1296  -5.1233
    -5.1179  -5.1168  -5.0513  -5.0368  -5.0361  -4.9907  -4.9802  -4.9664
    -4.1161  -3.9353  -3.8523  -3.7834  -3.6473  -3.6026  -3.5212  -3.3264
    -0.4197  -0.3870  -0.3489  -0.2770  -0.2156  -0.1635  -0.1241  -0.0866
    -0.0399   0.0151   0.0803   0.2628   0.3335   0.3587   0.4135   0.4305
     0.4563   0.4816   0.5217   0.5573   0.5811   0.6344   0.6548   0.7089
     0.8397   0.8895   0.8986   0.9514   0.9923   1.0279   1.0470   1.0704
     1.0818   1.1319   1.1653   1.1770   1.1948   1.2114   1.2468   1.2921
     1.3762   1.4332   1.4702   1.5237   1.5494   1.5822   1.6238   1.6490
     1.6955   1.7074   1.7159   1.7477   1.7599   1.7713   1.7874   1.8160
     1.8221   1.8338   1.8629   1.8720   1.8888   1.9070   1.9235   1.9484
     1.9714   2.0011   2.0127   2.0631   2.1017   2.1492   2.2275   2.2845

          k =-0.3750 0.3750-0.3750 (132612 PWs)   bands (ev):

   -18.4776 -18.4250 -18.3847 -18.3845 -18.3804 -18.3736 -18.3693 -18.3640
   -18.3637 -18.3562 -18.3555 -18.2867 -18.2827 -18.2798 -18.2775 -18.2742
   -18.2730 -18.2720 -18.2677 -18.2656 -18.2640 -18.2585 -18.2285 -18.2278
   -18.2214 -18.2211 -18.2162 -18.2148 -18.2131 -18.2105 -18.2090 -18.2088
   -18.2018 -18.1993 -18.1953 -18.1906 -18.1855 -18.1837 -18.1823 -18.1816
   -18.1781 -18.1743 -18.1715 -18.1661 -18.1642 -18.1587 -18.1544 -18.1499
    -9.4077  -9.3531  -9.2543  -9.1971  -9.1689  -9.1263  -9.0852  -9.0524
    -8.9743  -8.9394  -8.9316  -8.8806  -8.8728  -8.8465  -8.8149  -8.7973
    -8.7501  -8.7396  -8.7003  -8.6891  -8.6755  -8.6606  -8.5925  -8.5435
    -5.2495  -5.2344  -5.2311  -5.2037  -5.1962  -5.1803  -5.1616  -5.1521
    -5.1491  -5.1455  -5.1435  -5.1417  -5.1358  -5.1308  -5.1297  -5.1236
    -5.1179  -5.1166  -5.0513  -5.0368  -5.0361  -4.9908  -4.9802  -4.9664
    -4.1175  -3.9290  -3.8539  -3.7858  -3.6627  -3.5900  -3.5167  -3.3292
    -0.4273  -0.3794  -0.3357  -0.2858  -0.2162  -0.1795  -0.1222  -0.0756
    -0.0188   0.0314   0.0692   0.2129   0.3060   0.3506   0.3931   0.4297
     0.4887   0.5282   0.5406   0.5583   0.5760   0.6149   0.6535   0.7236
     0.8548   0.8730   0.9124   0.9621   0.9787   1.0006   1.0539   1.0662
     1.1005   1.1199   1.1506   1.1770   1.2013   1.2353   1.2473   1.2825
     1.3917   1.4316   1.4898   1.5081   1.5392   1.5906   1.6151   1.6473
     1.6587   1.7053   1.7413   1.7588   1.7633   1.7718   1.7942   1.8110
     1.8136   1.8325   1.8510   1.8621   1.8720   1.9015   1.9306   1.9649
     1.9756   1.9850   2.0327   2.0587   2.1077   2.1500   2.2169   2.3013

          k = 0.3750-0.3750-0.3750 (132612 PWs)   bands (ev):

   -18.4776 -18.4250 -18.3847 -18.3845 -18.3804 -18.3736 -18.3693 -18.3640
   -18.3637 -18.3562 -18.3555 -18.2867 -18.2827 -18.2798 -18.2775 -18.2742
   -18.2730 -18.2720 -18.2677 -18.2656 -18.2640 -18.2585 -18.2285 -18.2278
   -18.2214 -18.2211 -18.2162 -18.2148 -18.2131 -18.2105 -18.2090 -18.2088
   -18.2018 -18.1992 -18.1953 -18.1906 -18.1855 -18.1837 -18.1823 -18.1816
   -18.1781 -18.1743 -18.1715 -18.1661 -18.1642 -18.1587 -18.1544 -18.1499
    -9.4073  -9.3531  -9.2569  -9.1957  -9.1671  -9.1251  -9.0907  -9.0477
    -8.9747  -8.9399  -8.9321  -8.8846  -8.8718  -8.8428  -8.8153  -8.7956
    -8.7507  -8.7402  -8.7013  -8.6932  -8.6710  -8.6602  -8.5927  -8.5436
    -5.2494  -5.2347  -5.2312  -5.2033  -5.1962  -5.1806  -5.1614  -5.1518
    -5.1493  -5.1460  -5.1436  -5.1418  -5.1350  -5.1310  -5.1295  -5.1239
    -5.1178  -5.1167  -5.0512  -5.0368  -5.0361  -4.9907  -4.9802  -4.9664
    -4.1094  -3.9454  -3.8563  -3.7662  -3.6911  -3.5809  -3.4961  -3.3390
    -0.4378  -0.3750  -0.3318  -0.2815  -0.2343  -0.1558  -0.1312  -0.0798
    -0.0499   0.0254   0.0909   0.2635   0.3210   0.3622   0.4031   0.4262
     0.4709   0.4958   0.5296   0.5444   0.5864   0.6247   0.6579   0.7185
     0.8449   0.8786   0.9000   0.9346   0.9857   1.0033   1.0564   1.0734
     1.0874   1.1238   1.1657   1.1763   1.2123   1.2343   1.2418   1.3051
     1.3906   1.4271   1.4700   1.5099   1.5510   1.5905   1.6043   1.6328
     1.6756   1.7056   1.7238   1.7507   1.7661   1.7840   1.7906   1.8031
     1.8314   1.8466   1.8573   1.8730   1.8757   1.9084   1.9320   1.9452
     1.9535   1.9983   2.0281   2.0424   2.1120   2.1390   2.2463   2.2938

     highest occupied level (ev):     3.1237

!    total energy              =   -2256.30856950 Ry
     estimated scf accuracy    <          4.6E-11 Ry

     The total energy is the sum of the following terms:
     one-electron contribution =    -987.95915509 Ry
     hartree contribution      =     622.00029313 Ry
     xc contribution           =    -647.45829738 Ry
     ewald contribution        =   -1242.89141017 Ry

     convergence has been achieved in  15 iterations

     Forces acting on atoms (cartesian axes, Ry/au):

     atom    1 type  1   force =     0.00308779    0.00538347    0.00101620
     atom    2 type  2   force =     0.00493453   -0.01162362    0.01394707
     atom    3 type  3   force =    -0.00281218    0.00386195    0.00130090
     atom    4 type  3   force =    -0.00934621   -0.01133421   -0.00412756
     atom    5 type  3   force =     0.00573622    0.02562372   -0.00016862
     atom    6 type  1   force =     0.00036009   -0.00011593   -0.00139065
     atom    7 type  2   force =    -0.01481633    0.00501011   -0.02192975
     atom    8 type  3   force =     0.01554326   -0.00160357    0.00341660
     atom    9 type  3   force =     0.00236045   -0.00520472    0.00154699
     atom   10 type  3   force =     0.00181022   -0.00527714   -0.00014815
     atom   11 type  1   force =     0.00197856    0.00301828    0.00166554
     atom   12 type  2   force =    -0.00568896    0.00706009    0.01471354
     atom   13 type  3   force =    -0.00923532   -0.00358804   -0.00271944
     atom   14 type  3   force =     0.00392290    0.00210090    0.00284044
     atom   15 type  3   force =    -0.00397452   -0.01121854   -0.00336564
     atom   16 type  1   force =     0.00123797    0.00544343    0.00099057
     atom   17 type  2   force =    -0.00204097   -0.00586525   -0.00462669
     atom   18 type  3   force =     0.00279927    0.00571796   -0.00463383
     atom   19 type  3   force =    -0.00318135    0.00342203   -0.00018400
     atom   20 type  3   force =     0.00761690   -0.00111815    0.00309437
     atom   21 type  1   force =     0.00100891    0.00174234   -0.00003858
     atom   22 type  2   force =     0.00732639   -0.00360294    0.02495502
     atom   23 type  3   force =    -0.00236564   -0.00505690    0.00621003
     atom   24 type  3   force =     0.00183416    0.00264093    0.00686828
     atom   25 type  3   force =    -0.00627927   -0.00387577    0.01121704
     atom   26 type  1   force =     0.00232106   -0.00348682    0.00392727
     atom   27 type  2   force =    -0.00885426    0.00646266   -0.01602027
     atom   28 type  3   force =    -0.00508148    0.00104084    0.00064553
     atom   29 type  3   force =     0.00046392   -0.00224239   -0.02899998
     atom   30 type  3   force =     0.00003577   -0.00898466    0.00348522
     atom   31 type  1   force =    -0.00316246    0.00046979   -0.00190065
     atom   32 type  2   force =     0.00207144   -0.00148619   -0.00464669
     atom   33 type  3   force =     0.01442122    0.00017552   -0.00169624
     atom   34 type  3   force =    -0.00323180    0.00194801   -0.01122085
     atom   35 type  3   force =    -0.00303484    0.00439524    0.00377017
     atom   36 type  1   force =    -0.00174265    0.00103856    0.00132324
     atom   37 type  2   force =    -0.00474002   -0.01095389   -0.00751863
     atom   38 type  3   force =    -0.00002386    0.00357876    0.00492211
     atom   39 type  3   force =     0.00734862   -0.00199614    0.00056599
     atom   40 type  3   force =     0.00139246    0.00850028    0.00291409

     Total force =     0.080197     Total SCF correction =     0.000029


     Computing stress (Cartesian axis) and pressure

          total   stress  (Ry/bohr**3)                   (kbar)     P=       -8.17
  -0.00005075   0.00000234  -0.00000217           -7.46        0.34       -0.32
   0.00000234  -0.00005940  -0.00000205            0.34       -8.74       -0.30
  -0.00000217  -0.00000205  -0.00005649           -0.32       -0.30       -8.31

 
     init_run     :     19.86s CPU     17.05s WALL (       1 calls)
     electrons    :    202.62s CPU    213.44s WALL (       1 calls)
     forces       :      8.82s CPU      3.88s WALL (       1 calls)
     stress       :     31.36s CPU     30.61s WALL (       1 calls)

     Called by init_run:
     wfcinit      :     12.01s CPU     14.00s WALL (       1 calls)
                                       14.00s GPU  (       1 calls)
     potinit      :      4.50s CPU      1.39s WALL (       1 calls)
     hinit0       :      2.79s CPU      0.99s WALL (       1 calls)

     Called by electrons:
     c_bands      :    122.14s CPU    171.48s WALL (      16 calls)
     sum_band     :     21.71s CPU     20.74s WALL (      16 calls)
                                       20.73s GPU  (      16 calls)
     v_of_rho     :     54.47s CPU     16.52s WALL (      16 calls)
     mix_rho      :      6.47s CPU      4.99s WALL (      16 calls)

     Called by c_bands:
     init_us_2    :      2.43s CPU      3.15s WALL (     280 calls)
                                        3.15s GPU  (     280 calls)
     cegterg      :     82.12s CPU    128.95s WALL (     128 calls)

     Called by *egterg:
     cdiaghg      :     13.81s CPU     25.55s WALL (     655 calls)
                                       25.51s GPU  (     655 calls)
     h_psi        :     55.79s CPU     75.16s WALL (     671 calls)
                                       74.72s GPU  (     671 calls)
     g_psi        :      0.00s CPU      0.37s WALL (     535 calls)
                                        0.36s GPU  (     535 calls)

     Called by h_psi:
     h_psi:calbec :      0.30s CPU     10.07s WALL (     671 calls)
                                       10.07s GPU  (     671 calls)
     vloc_psi     :     40.67s CPU     55.09s WALL (     671 calls)
                                       54.16s GPU  (     671 calls)
     add_vuspsi   :      0.34s CPU      9.91s WALL (     671 calls)
                                        9.90s GPU  (     671 calls)

     General routines
     calbec       :      0.30s CPU      0.39s WALL (     711 calls)
     fft          :     25.38s CPU      6.48s WALL (     185 calls)
                                        0.00s GPU  (       6 calls)
     ffts         :      2.60s CPU      0.67s WALL (      16 calls)
     fftw         :      0.62s CPU     63.63s WALL (   10684 calls)
                                       47.57s GPU  (   10684 calls)
 
     Parallel routines
 
     PWSCF        :   4m23.30s CPU   4m25.72s WALL

 
   This run was terminated on:  21:59:54  22Apr2021            

=------------------------------------------------------------------------------=
   JOB DONE.
=------------------------------------------------------------------------------=
