
     Program PWSCF v.6.7MaX starts on 22Apr2021 at 22:13:13 

     This program is part of the open-source Quantum ESPRESSO suite
     for quantum simulation of materials; please cite
         "P. Giannozzi et al., J. Phys.:Condens. Matter 21 395502 (2009);
         "P. Giannozzi et al., J. Phys.:Condens. Matter 29 465901 (2017);
         "P. Giannozzi et al., J. Chem. Phys. 152 154105 (2020);
          URL http://www.quantum-espresso.org", 
     in publications or presentations arising from this work. More details at
     http://www.quantum-espresso.org/quote

     Parallel version (MPI & OpenMP), running on      16 processor cores
     Number of MPI processes:                 4
     Threads/MPI process:                     4

     MPI processes distributed on     1 nodes
     K-points division:     npool     =       4
     Reading input from ESP_25.pwi
Warning: card &CELL ignored
Warning: card / ignored

     Current dimensions of program PWSCF are:
     Max number of different atomic species (ntypx) = 10
     Max number of k-points (npk) =  40000
     Max angular momentum in pseudopotentials (lmaxx) =  3
     Message from routine read_pp_mesh:
     mesh size missing, using the one in header
     Message from routine read_pp_mesh:
     mesh size missing, using the one in header
     Message from routine read_pp_mesh:
     mesh size missing, using the one in header

     Subspace diagonalization in iterative solution of the eigenvalue problem:
     a serial algorithm will be used

 
     G-vector sticks info
     --------------------
     sticks:   dense  smooth     PW     G-vecs:    dense   smooth      PW
     Sum       12589   12589   3289              1061107  1061107  140905
 
     Using Slab Decomposition
 


     bravais-lattice index     =            0
     lattice parameter (alat)  =      23.7585  a.u.
     unit-cell volume          =   13410.8736 (a.u.)^3
     number of atoms/cell      =           40
     number of atomic types    =            3
     number of electrons       =       352.00
     number of Kohn-Sham states=          176
     kinetic-energy cutoff     =      70.0000  Ry
     charge density cutoff     =     280.0000  Ry
     scf convergence threshold =      1.0E-10
     mixing beta               =       0.7000
     number of iterations used =            8  plain     mixing
     Exchange-correlation= PBESOL
                           (   1   4  10   8   0   0   0)

     GPU acceleration is ACTIVE.


     celldm(1)=  23.758500  celldm(2)=   0.000000  celldm(3)=   0.000000
     celldm(4)=   0.000000  celldm(5)=   0.000000  celldm(6)=   0.000000

     crystal axes: (cart. coord. in units of alat)
               a(1) = (   1.000000   0.000000   0.000000 )  
               a(2) = (   0.000000   1.000000   0.000000 )  
               a(3) = (   0.000000   0.000000   1.000000 )  

     reciprocal axes: (cart. coord. in units 2 pi/alat)
               b(1) = (  1.000000  0.000000  0.000000 )  
               b(2) = (  0.000000  1.000000  0.000000 )  
               b(3) = (  0.000000  0.000000  1.000000 )  


     PseudoPot. # 1 for Cs read from file:
     /m100/home/userexternal/lmonacel/espresso/pseudo/Cs-nc-pbesol.upf
     MD5 check sum: 9d2f2206a14dc5b3b3f3fbfae186bed4
     Pseudo is Norm-conserving + core correction, Zval =  9.0
     Generated using ONCVPSP code by D. R. Hamann
     Using radial grid of 2384 points,  8 beta functions with: 
                l(1) =   0
                l(2) =   0
                l(3) =   1
                l(4) =   1
                l(5) =   2
                l(6) =   2
                l(7) =   3
                l(8) =   3

     PseudoPot. # 2 for Sn read from file:
     /m100/home/userexternal/lmonacel/espresso/pseudo/Sn-nc-pbesol.upf
     MD5 check sum: c2995d571af40102bfea7461443d92cf
     Pseudo is Norm-conserving + core correction, Zval = 14.0
     Generated using ONCVPSP code by D. R. Hamann
     Using radial grid of 1628 points,  6 beta functions with: 
                l(1) =   0
                l(2) =   0
                l(3) =   1
                l(4) =   1
                l(5) =   2
                l(6) =   2

     PseudoPot. # 3 for I  read from file:
     /m100/home/userexternal/lmonacel/espresso/pseudo/I-nc-pbesol.upf
     MD5 check sum: 80ed5ceb2eb9c553cfb6760a299d9c5b
     Pseudo is Norm-conserving + core correction, Zval =  7.0
     Generated using ONCVPSP code by D. R. Hamann
     Using radial grid of 1182 points,  6 beta functions with: 
                l(1) =   0
                l(2) =   0
                l(3) =   1
                l(4) =   1
                l(5) =   2
                l(6) =   2

     atomic species   valence    mass     pseudopotential
        Cs             9.00   132.90545     Cs( 1.00)
        Sn            14.00   118.71000     Sn( 1.00)
        I              7.00   126.90447     I ( 1.00)

     No symmetry found



   Cartesian axes

     site n.     atom                  positions (alat units)
         1           Cs  tau(   1) = (   0.2265627   0.2557711   0.2254752  )
         2           Sn  tau(   2) = (   0.0080591  -0.0058105  -0.0200416  )
         3           I   tau(   3) = (   0.2489864  -0.0211939  -0.0074868  )
         4           I   tau(   4) = (   0.0139407   0.0165297   0.2444443  )
         5           I   tau(   5) = (   0.0060433   0.2380251  -0.0212828  )
         6           Cs  tau(   6) = (   0.2550956   0.2662338   0.7477588  )
         7           Sn  tau(   7) = (  -0.0101439   0.0264986   0.4782435  )
         8           I   tau(   8) = (   0.2461857   0.0621469   0.5221203  )
         9           I   tau(   9) = (  -0.0172124   0.0018418   0.7393286  )
        10           I   tau(  10) = (  -0.0045864   0.2675699   0.5089765  )
        11           Cs  tau(  11) = (   0.2519473   0.7445282   0.2852553  )
        12           Sn  tau(  12) = (   0.0031478   0.5013212   0.0046687  )
        13           I   tau(  13) = (   0.2392234   0.4889993  -0.0375110  )
        14           I   tau(  14) = (   0.0334057   0.5073177   0.2468213  )
        15           I   tau(  15) = (   0.0171654   0.7369513  -0.0175619  )
        16           Cs  tau(  16) = (   0.2552390   0.7451027   0.7516099  )
        17           Sn  tau(  17) = (   0.0128290   0.5285852   0.5106779  )
        18           I   tau(  18) = (   0.2601118   0.5077025   0.5166787  )
        19           I   tau(  19) = (  -0.0491001   0.4995146   0.7461096  )
        20           I   tau(  20) = (  -0.0055686   0.7632682   0.4932050  )
        21           Cs  tau(  21) = (   0.7540145   0.2220529   0.2295050  )
        22           Sn  tau(  22) = (   0.4932425  -0.0144179  -0.0019971  )
        23           I   tau(  23) = (   0.7585366  -0.0045991  -0.0021920  )
        24           I   tau(  24) = (   0.4982217   0.0130489   0.2495981  )
        25           I   tau(  25) = (   0.4923522   0.2392544  -0.0114702  )
        26           Cs  tau(  26) = (   0.7814187   0.2586084   0.7768775  )
        27           Sn  tau(  27) = (   0.4911383   0.0231189   0.5008061  )
        28           I   tau(  28) = (   0.7580612  -0.0080243   0.4815224  )
        29           I   tau(  29) = (   0.5022215   0.0222359   0.7481799  )
        30           I   tau(  30) = (   0.5172414   0.2513769   0.4905593  )
        31           Cs  tau(  31) = (   0.7099794   0.7034458   0.2462177  )
        32           Sn  tau(  32) = (   0.5091736   0.4726940   0.0177915  )
        33           I   tau(  33) = (   0.7490561   0.4629378   0.0658463  )
        34           I   tau(  34) = (   0.4947352   0.4801119   0.2547941  )
        35           I   tau(  35) = (   0.5004435   0.7361610   0.0153138  )
        36           Cs  tau(  36) = (   0.7491794   0.7615644   0.7632276  )
        37           Sn  tau(  37) = (   0.5091558   0.5057171   0.5127751  )
        38           I   tau(  38) = (   0.7495226   0.4785655   0.4811827  )
        39           I   tau(  39) = (   0.5102382   0.5209621   0.7512898  )
        40           I   tau(  40) = (   0.4825916   0.7487356   0.5116460  )

     number of k points=    32
                       cart. coord. in units 2pi/alat
        k(    1) = (   0.1250000   0.1250000   0.1250000), wk =   0.0625000
        k(    2) = (   0.1250000   0.1250000   0.3750000), wk =   0.0625000
        k(    3) = (   0.1250000   0.3750000   0.3750000), wk =   0.0625000
        k(    4) = (   0.3750000   0.3750000   0.3750000), wk =   0.0625000
        k(    5) = (  -0.1250000  -0.1250000   0.1250000), wk =   0.0625000
        k(    6) = (  -0.1250000   0.1250000  -0.1250000), wk =   0.0625000
        k(    7) = (   0.1250000  -0.1250000  -0.1250000), wk =   0.0625000
        k(    8) = (  -0.1250000  -0.1250000   0.3750000), wk =   0.0625000
        k(    9) = (  -0.1250000   0.1250000  -0.3750000), wk =   0.0625000
        k(   10) = (   0.1250000  -0.1250000  -0.3750000), wk =   0.0625000
        k(   11) = (   0.3750000  -0.1250000   0.1250000), wk =   0.0625000
        k(   12) = (  -0.3750000  -0.1250000  -0.1250000), wk =   0.0625000
        k(   13) = (   0.3750000   0.1250000  -0.1250000), wk =   0.0625000
        k(   14) = (  -0.3750000   0.1250000   0.1250000), wk =   0.0625000
        k(   15) = (  -0.1250000   0.3750000   0.1250000), wk =   0.0625000
        k(   16) = (  -0.1250000  -0.3750000  -0.1250000), wk =   0.0625000
        k(   17) = (   0.1250000   0.3750000  -0.1250000), wk =   0.0625000
        k(   18) = (   0.1250000  -0.3750000   0.1250000), wk =   0.0625000
        k(   19) = (  -0.1250000  -0.3750000   0.3750000), wk =   0.0625000
        k(   20) = (  -0.1250000   0.3750000  -0.3750000), wk =   0.0625000
        k(   21) = (   0.1250000  -0.3750000  -0.3750000), wk =   0.0625000
        k(   22) = (   0.3750000   0.1250000  -0.3750000), wk =   0.0625000
        k(   23) = (  -0.3750000  -0.1250000  -0.3750000), wk =   0.0625000
        k(   24) = (   0.3750000  -0.1250000   0.3750000), wk =   0.0625000
        k(   25) = (  -0.3750000   0.1250000   0.3750000), wk =   0.0625000
        k(   26) = (   0.3750000  -0.3750000   0.1250000), wk =   0.0625000
        k(   27) = (  -0.3750000  -0.3750000  -0.1250000), wk =   0.0625000
        k(   28) = (   0.3750000   0.3750000  -0.1250000), wk =   0.0625000
        k(   29) = (  -0.3750000   0.3750000   0.1250000), wk =   0.0625000
        k(   30) = (  -0.3750000  -0.3750000   0.3750000), wk =   0.0625000
        k(   31) = (  -0.3750000   0.3750000  -0.3750000), wk =   0.0625000
        k(   32) = (   0.3750000  -0.3750000  -0.3750000), wk =   0.0625000

     Dense  grid:  1061107 G-vectors     FFT dimensions: ( 128, 128, 128)

     Estimated max dynamical RAM per process >       6.82 GB

     Estimated total dynamical RAM >      27.27 GB

     Initial potential from superposition of free atoms

     starting charge  351.69472, renormalised to  352.00000
     Starting wfcs are  208 randomized atomic wfcs

     total cpu time spent up to now is       17.7 secs

     Self-consistent Calculation

     iteration #  1     ecut=    70.00 Ry     beta= 0.70
     Davidson diagonalization with overlap
     ethr =  1.00E-02,  avg # of iterations =  2.0

     Threshold (ethr) on eigenvalues was too large:
     Diagonalizing with lowered threshold

     Davidson diagonalization with overlap
     ethr =  2.10E-04,  avg # of iterations =  4.0

     total cpu time spent up to now is       38.6 secs

     total energy              =   -2256.05942331 Ry
     estimated scf accuracy    <       0.63748274 Ry

     iteration #  2     ecut=    70.00 Ry     beta= 0.70
     Davidson diagonalization with overlap
     ethr =  1.81E-04,  avg # of iterations =  3.3

     total cpu time spent up to now is       51.2 secs

     total energy              =   -2256.26009485 Ry
     estimated scf accuracy    <       0.26833828 Ry

     iteration #  3     ecut=    70.00 Ry     beta= 0.70
     Davidson diagonalization with overlap
     ethr =  7.62E-05,  avg # of iterations =  2.6

     total cpu time spent up to now is       62.9 secs

     total energy              =   -2256.31051357 Ry
     estimated scf accuracy    <       0.01525971 Ry

     iteration #  4     ecut=    70.00 Ry     beta= 0.70
     Davidson diagonalization with overlap
     ethr =  4.34E-06,  avg # of iterations =  4.7

     total cpu time spent up to now is       76.9 secs

     total energy              =   -2256.31650179 Ry
     estimated scf accuracy    <       0.00666590 Ry

     iteration #  5     ecut=    70.00 Ry     beta= 0.70
     Davidson diagonalization with overlap
     ethr =  1.89E-06,  avg # of iterations =  3.9

     total cpu time spent up to now is       89.3 secs

     total energy              =   -2256.31773109 Ry
     estimated scf accuracy    <       0.00104275 Ry

     iteration #  6     ecut=    70.00 Ry     beta= 0.70
     Davidson diagonalization with overlap
     ethr =  2.96E-07,  avg # of iterations =  3.8

     total cpu time spent up to now is      101.7 secs

     total energy              =   -2256.31790616 Ry
     estimated scf accuracy    <       0.00019646 Ry

     iteration #  7     ecut=    70.00 Ry     beta= 0.70
     Davidson diagonalization with overlap
     ethr =  5.58E-08,  avg # of iterations =  4.3

     total cpu time spent up to now is      115.0 secs

     total energy              =   -2256.31796419 Ry
     estimated scf accuracy    <       0.00001430 Ry

     iteration #  8     ecut=    70.00 Ry     beta= 0.70
     Davidson diagonalization with overlap
     ethr =  4.06E-09,  avg # of iterations =  5.5

     total cpu time spent up to now is      129.9 secs

     total energy              =   -2256.31797228 Ry
     estimated scf accuracy    <       0.00000419 Ry

     iteration #  9     ecut=    70.00 Ry     beta= 0.70
     Davidson diagonalization with overlap
     ethr =  1.19E-09,  avg # of iterations =  4.0

     total cpu time spent up to now is      142.9 secs

     total energy              =   -2256.31797329 Ry
     estimated scf accuracy    <       0.00000086 Ry

     iteration # 10     ecut=    70.00 Ry     beta= 0.70
     Davidson diagonalization with overlap
     ethr =  2.44E-10,  avg # of iterations =  3.0

     total cpu time spent up to now is      156.2 secs

     total energy              =   -2256.31797361 Ry
     estimated scf accuracy    <       0.00000009 Ry

     iteration # 11     ecut=    70.00 Ry     beta= 0.70
     Davidson diagonalization with overlap
     ethr =  2.43E-11,  avg # of iterations =  6.8

     total cpu time spent up to now is      173.6 secs

     total energy              =   -2256.31797368 Ry
     estimated scf accuracy    <       0.00000003 Ry

     iteration # 12     ecut=    70.00 Ry     beta= 0.70
     Davidson diagonalization with overlap
     ethr =  9.03E-12,  avg # of iterations =  3.9

     total cpu time spent up to now is      187.0 secs

     total energy              =   -2256.31797369 Ry
     estimated scf accuracy    <          5.6E-09 Ry

     iteration # 13     ecut=    70.00 Ry     beta= 0.70
     Davidson diagonalization with overlap
     ethr =  1.58E-12,  avg # of iterations =  5.1

     total cpu time spent up to now is      201.2 secs

     total energy              =   -2256.31797369 Ry
     estimated scf accuracy    <          3.7E-10 Ry

     iteration # 14     ecut=    70.00 Ry     beta= 0.70
     Davidson diagonalization with overlap
     ethr =  1.04E-13,  avg # of iterations =  7.3

     total cpu time spent up to now is      220.7 secs

     total energy              =   -2256.31797369 Ry
     estimated scf accuracy    <          2.4E-10 Ry

     iteration # 15     ecut=    70.00 Ry     beta= 0.70
     Davidson diagonalization with overlap
     ethr =  1.00E-13,  avg # of iterations =  2.3

     total cpu time spent up to now is      232.1 secs

     End of self-consistent calculation

          k = 0.1250 0.1250 0.1250 (132670 PWs)   bands (ev):

   -18.5229 -18.4669 -18.4433 -18.4162 -18.3797 -18.3546 -18.3451 -18.3397
   -18.3300 -18.3182 -18.3147 -18.3041 -18.3039 -18.2957 -18.2927 -18.2644
   -18.2638 -18.2614 -18.2594 -18.2527 -18.2507 -18.2467 -18.2464 -18.2451
   -18.2435 -18.2418 -18.2317 -18.2289 -18.2284 -18.2172 -18.2118 -18.2055
   -18.2009 -18.1353 -18.1276 -18.1194 -18.1187 -18.1124 -18.1121 -18.1049
   -18.1039 -18.0949 -18.0893 -18.0713 -18.0584 -18.0539 -18.0428 -18.0377
    -9.4225  -9.2952  -9.2243  -9.1991  -9.1207  -9.0920  -9.0478  -9.0197
    -8.9879  -8.9742  -8.9373  -8.9245  -8.8875  -8.8594  -8.8251  -8.8093
    -8.7976  -8.7705  -8.7243  -8.7001  -8.6678  -8.6475  -8.5951  -8.5182
    -5.2906  -5.2819  -5.2755  -5.2340  -5.2241  -5.2198  -5.2127  -5.2022
    -5.1963  -5.1876  -5.1808  -5.1759  -5.1680  -5.1649  -5.1402  -5.0488
    -5.0376  -5.0363  -5.0290  -5.0263  -5.0207  -5.0141  -5.0125  -4.9958
    -4.4366  -3.9631  -3.9141  -3.8396  -3.4040  -3.3432  -3.3013  -2.7397
    -0.7586  -0.7217  -0.6723  -0.6171  -0.5774  -0.5405  -0.4640  -0.4315
    -0.3905  -0.3299  -0.2567  -0.1556   0.4642   0.4787   0.5081   0.6241
     0.6630   0.6882   0.7242   0.7323   0.7762   0.8866   0.9217   0.9504
     1.0176   1.0309   1.0583   1.1105   1.1324   1.1397   1.1537   1.2019
     1.2219   1.2335   1.2655   1.3016   1.3243   1.3411   1.3563   1.3923
     1.4163   1.4341   1.4541   1.4772   1.4897   1.4997   1.5104   1.5445
     1.5656   1.5963   1.6080   1.6426   1.6503   1.6657   1.6809   1.7193
     1.7564   1.7977   1.8732   1.9260   1.9690   2.0206   2.0428   2.1032
     2.1221   2.1934   2.2403   2.3410   2.6683   2.7249   2.8093   3.1623

          k = 0.1250 0.1250 0.3750 (132608 PWs)   bands (ev):

   -18.5229 -18.4669 -18.4433 -18.4162 -18.3797 -18.3546 -18.3451 -18.3397
   -18.3300 -18.3182 -18.3147 -18.3041 -18.3039 -18.2957 -18.2927 -18.2643
   -18.2638 -18.2615 -18.2594 -18.2527 -18.2507 -18.2467 -18.2464 -18.2451
   -18.2435 -18.2418 -18.2317 -18.2289 -18.2284 -18.2172 -18.2118 -18.2055
   -18.2009 -18.1353 -18.1276 -18.1194 -18.1187 -18.1124 -18.1121 -18.1049
   -18.1039 -18.0949 -18.0893 -18.0713 -18.0584 -18.0539 -18.0428 -18.0377
    -9.4095  -9.2903  -9.2432  -9.1929  -9.1212  -9.1013  -9.0733  -9.0286
    -8.9879  -8.9800  -8.9349  -8.9066  -8.8780  -8.8514  -8.8341  -8.7959
    -8.7895  -8.7531  -8.7079  -8.7030  -8.6846  -8.6553  -8.6065  -8.5187
    -5.2903  -5.2816  -5.2751  -5.2341  -5.2242  -5.2196  -5.2127  -5.2016
    -5.1959  -5.1878  -5.1814  -5.1760  -5.1681  -5.1650  -5.1404  -5.0488
    -5.0371  -5.0361  -5.0293  -5.0260  -5.0212  -5.0145  -5.0129  -4.9960
    -4.3165  -4.0737  -3.8339  -3.7354  -3.5668  -3.4871  -3.2113  -2.9564
    -0.7219  -0.6849  -0.6421  -0.5812  -0.5566  -0.4499  -0.3489  -0.2868
    -0.1170  -0.0505   0.0110   0.0877   0.4254   0.4509   0.4945   0.5225
     0.5860   0.6079   0.6369   0.6474   0.6847   0.7368   0.7647   0.8241
     0.8646   0.9425   0.9511   1.0106   1.0886   1.1076   1.1414   1.1611
     1.1985   1.2226   1.2684   1.2866   1.3097   1.3469   1.3662   1.3987
     1.4143   1.4421   1.4603   1.4798   1.5198   1.5404   1.5592   1.5739
     1.5843   1.6051   1.6255   1.6587   1.6685   1.7048   1.7163   1.7685
     1.8062   1.8181   1.8624   1.8784   1.9242   1.9486   1.9794   1.9994
     2.0430   2.1257   2.2238   2.2984   2.4327   2.5764   2.7100   2.9063

          k = 0.1250 0.3750 0.3750 (132616 PWs)   bands (ev):

   -18.5229 -18.4669 -18.4433 -18.4162 -18.3797 -18.3546 -18.3451 -18.3397
   -18.3300 -18.3182 -18.3147 -18.3041 -18.3039 -18.2957 -18.2927 -18.2643
   -18.2638 -18.2615 -18.2594 -18.2527 -18.2507 -18.2467 -18.2464 -18.2451
   -18.2435 -18.2418 -18.2317 -18.2289 -18.2284 -18.2172 -18.2118 -18.2055
   -18.2009 -18.1353 -18.1276 -18.1193 -18.1188 -18.1124 -18.1121 -18.1049
   -18.1039 -18.0949 -18.0893 -18.0713 -18.0584 -18.0539 -18.0428 -18.0377
    -9.3934  -9.3018  -9.2299  -9.1846  -9.1577  -9.1209  -9.0638  -9.0326
    -9.0107  -8.9811  -8.9183  -8.8970  -8.8599  -8.8440  -8.8278  -8.7988
    -8.7762  -8.7540  -8.7124  -8.7040  -8.6925  -8.6559  -8.6047  -8.5256
    -5.2903  -5.2817  -5.2750  -5.2342  -5.2241  -5.2197  -5.2127  -5.2016
    -5.1959  -5.1875  -5.1810  -5.1758  -5.1682  -5.1651  -5.1404  -5.0486
    -5.0375  -5.0361  -5.0294  -5.0260  -5.0209  -5.0146  -5.0130  -4.9959
    -4.1838  -3.9891  -3.9150  -3.6916  -3.6617  -3.4347  -3.3985  -3.1607
    -0.6355  -0.5928  -0.5260  -0.3802  -0.3374  -0.2517  -0.1571  -0.1320
    -0.0832   0.0055   0.1120   0.1720   0.3265   0.4039   0.4457   0.4952
     0.5158   0.5407   0.5827   0.6093   0.6474   0.6660   0.6730   0.7109
     0.8331   0.8870   0.9501   0.9897   1.0116   1.0316   1.0826   1.1110
     1.1352   1.1723   1.2139   1.2302   1.2495   1.2859   1.3236   1.3618
     1.3714   1.4316   1.4690   1.4865   1.5129   1.5515   1.5768   1.6029
     1.6423   1.6546   1.6706   1.6979   1.7128   1.7463   1.7568   1.7849
     1.8162   1.8301   1.8405   1.8592   1.8843   1.9210   1.9488   1.9815
     2.0082   2.0681   2.1123   2.1835   2.2906   2.4061   2.5038   2.6219

          k = 0.3750 0.3750 0.3750 (132612 PWs)   bands (ev):

   -18.5229 -18.4669 -18.4433 -18.4162 -18.3797 -18.3546 -18.3451 -18.3397
   -18.3300 -18.3182 -18.3147 -18.3041 -18.3039 -18.2957 -18.2927 -18.2643
   -18.2638 -18.2615 -18.2594 -18.2527 -18.2507 -18.2467 -18.2464 -18.2452
   -18.2435 -18.2418 -18.2317 -18.2289 -18.2284 -18.2172 -18.2118 -18.2055
   -18.2009 -18.1353 -18.1276 -18.1193 -18.1188 -18.1124 -18.1121 -18.1049
   -18.1039 -18.0949 -18.0893 -18.0713 -18.0584 -18.0539 -18.0428 -18.0377
    -9.3807  -9.3014  -9.2144  -9.2103  -9.1675  -9.1095  -9.0898  -9.0415
    -9.0146  -8.9697  -8.9077  -8.8942  -8.8553  -8.8412  -8.8246  -8.8066
    -8.7768  -8.7536  -8.7140  -8.6952  -8.6813  -8.6579  -8.5959  -8.5439
    -5.2904  -5.2818  -5.2752  -5.2337  -5.2231  -5.2200  -5.2131  -5.2019
    -5.1964  -5.1878  -5.1809  -5.1769  -5.1670  -5.1649  -5.1403  -5.0486
    -5.0373  -5.0354  -5.0315  -5.0243  -5.0215  -5.0157  -5.0116  -4.9958
    -4.0661  -3.9303  -3.8218  -3.7521  -3.6231  -3.5893  -3.5187  -3.3270
    -0.4319  -0.3957  -0.3000  -0.2467  -0.1801  -0.1337  -0.1094  -0.0924
    -0.0517   0.0122   0.0914   0.2393   0.2654   0.3622   0.4008   0.4296
     0.4843   0.4957   0.5472   0.5610   0.5886   0.6059   0.6566   0.6730
     0.8005   0.8913   0.9355   0.9603   0.9749   1.0291   1.0537   1.0732
     1.1051   1.1271   1.1525   1.1879   1.2083   1.2332   1.2376   1.2736
     1.3457   1.4098   1.4642   1.4909   1.5285   1.5575   1.5940   1.6316
     1.6625   1.6880   1.7060   1.7365   1.7453   1.7727   1.7828   1.8096
     1.8252   1.8324   1.8520   1.8714   1.8885   1.9131   1.9407   1.9722
     2.0155   2.0305   2.0609   2.0874   2.1278   2.1547   2.2691   2.3969

          k =-0.1250-0.1250 0.1250 (132670 PWs)   bands (ev):

   -18.5229 -18.4669 -18.4433 -18.4162 -18.3797 -18.3546 -18.3451 -18.3397
   -18.3300 -18.3182 -18.3147 -18.3041 -18.3039 -18.2957 -18.2927 -18.2644
   -18.2638 -18.2614 -18.2594 -18.2527 -18.2507 -18.2467 -18.2464 -18.2451
   -18.2435 -18.2418 -18.2317 -18.2289 -18.2284 -18.2172 -18.2118 -18.2055
   -18.2009 -18.1353 -18.1276 -18.1194 -18.1187 -18.1124 -18.1121 -18.1049
   -18.1039 -18.0949 -18.0893 -18.0713 -18.0584 -18.0539 -18.0428 -18.0377
    -9.4223  -9.2948  -9.2307  -9.1931  -9.1120  -9.1000  -9.0526  -9.0168
    -8.9912  -8.9679  -8.9392  -8.9181  -8.8948  -8.8600  -8.8283  -8.8071
    -8.7961  -8.7700  -8.7230  -8.6995  -8.6678  -8.6490  -8.5951  -8.5182
    -5.2905  -5.2818  -5.2756  -5.2340  -5.2242  -5.2200  -5.2127  -5.2018
    -5.1963  -5.1875  -5.1806  -5.1761  -5.1683  -5.1649  -5.1401  -5.0487
    -5.0379  -5.0360  -5.0297  -5.0259  -5.0206  -5.0143  -5.0123  -4.9958
    -4.4367  -3.9590  -3.9224  -3.8352  -3.4037  -3.3446  -3.2993  -2.7410
    -0.7582  -0.7131  -0.6693  -0.6350  -0.5663  -0.5370  -0.4717  -0.4396
    -0.3842  -0.3273  -0.2515  -0.1616   0.4667   0.4771   0.5049   0.6152
     0.6707   0.6938   0.7038   0.7413   0.7809   0.8829   0.9281   0.9682
     0.9915   1.0442   1.0689   1.0900   1.1233   1.1327   1.1630   1.1978
     1.2159   1.2465   1.2751   1.3025   1.3215   1.3351   1.3752   1.3879
     1.4105   1.4303   1.4479   1.4717   1.5019   1.5085   1.5233   1.5345
     1.5556   1.5926   1.6094   1.6192   1.6470   1.6704   1.6973   1.7318
     1.7608   1.7948   1.8669   1.9414   1.9702   2.0090   2.0572   2.0942
     2.1316   2.1964   2.2276   2.3364   2.6675   2.7145   2.8164   3.1584

          k =-0.1250 0.1250-0.1250 (132670 PWs)   bands (ev):

   -18.5229 -18.4669 -18.4433 -18.4162 -18.3797 -18.3546 -18.3451 -18.3397
   -18.3300 -18.3182 -18.3147 -18.3041 -18.3039 -18.2957 -18.2927 -18.2644
   -18.2638 -18.2614 -18.2594 -18.2527 -18.2507 -18.2467 -18.2464 -18.2451
   -18.2435 -18.2418 -18.2317 -18.2289 -18.2284 -18.2172 -18.2118 -18.2055
   -18.2009 -18.1353 -18.1276 -18.1194 -18.1187 -18.1124 -18.1121 -18.1049
   -18.1039 -18.0949 -18.0893 -18.0713 -18.0584 -18.0539 -18.0428 -18.0377
    -9.4236  -9.2851  -9.2339  -9.2040  -9.1084  -9.1055  -9.0372  -9.0219
    -8.9892  -8.9716  -8.9387  -8.9164  -8.8999  -8.8551  -8.8281  -8.8104
    -8.7953  -8.7715  -8.7232  -8.7007  -8.6681  -8.6464  -8.5946  -8.5188
    -5.2906  -5.2818  -5.2755  -5.2340  -5.2241  -5.2199  -5.2127  -5.2019
    -5.1964  -5.1879  -5.1805  -5.1761  -5.1679  -5.1647  -5.1403  -5.0487
    -5.0377  -5.0363  -5.0291  -5.0264  -5.0207  -5.0140  -5.0125  -4.9958
    -4.4375  -3.9477  -3.9285  -3.8400  -3.4065  -3.3399  -3.3019  -2.7398
    -0.7628  -0.7005  -0.6676  -0.6109  -0.5883  -0.5576  -0.4816  -0.4309
    -0.3765  -0.3255  -0.2619  -0.1539   0.4666   0.4759   0.5034   0.6318
     0.6621   0.6997   0.7136   0.7365   0.7659   0.8919   0.9103   0.9622
     1.0171   1.0339   1.0495   1.0981   1.1436   1.1544   1.1646   1.1916
     1.2271   1.2545   1.2643   1.2909   1.3164   1.3441   1.3622   1.3895
     1.4150   1.4253   1.4542   1.4759   1.4900   1.5012   1.5154   1.5452
     1.5656   1.5839   1.6021   1.6183   1.6531   1.6631   1.6849   1.7236
     1.7563   1.8113   1.8706   1.9428   1.9704   2.0026   2.0617   2.0912
     2.1220   2.1897   2.2370   2.3497   2.6696   2.7127   2.8093   3.1730

          k = 0.1250-0.1250-0.1250 (132670 PWs)   bands (ev):

   -18.5229 -18.4669 -18.4433 -18.4162 -18.3797 -18.3546 -18.3451 -18.3397
   -18.3300 -18.3182 -18.3147 -18.3041 -18.3039 -18.2957 -18.2927 -18.2644
   -18.2638 -18.2614 -18.2594 -18.2527 -18.2507 -18.2467 -18.2464 -18.2451
   -18.2435 -18.2418 -18.2317 -18.2289 -18.2284 -18.2172 -18.2118 -18.2055
   -18.2009 -18.1353 -18.1276 -18.1194 -18.1187 -18.1124 -18.1121 -18.1049
   -18.1039 -18.0949 -18.0893 -18.0713 -18.0584 -18.0539 -18.0428 -18.0377
    -9.4233  -9.2870  -9.2318  -9.2057  -9.1101  -9.0981  -9.0381  -9.0243
    -8.9873  -8.9800  -8.9364  -8.9180  -8.8935  -8.8570  -8.8284  -8.8046
    -8.7987  -8.7747  -8.7229  -8.6993  -8.6672  -8.6481  -8.5945  -8.5187
    -5.2904  -5.2819  -5.2756  -5.2340  -5.2242  -5.2198  -5.2127  -5.2021
    -5.1959  -5.1879  -5.1809  -5.1758  -5.1682  -5.1645  -5.1402  -5.0487
    -5.0380  -5.0358  -5.0297  -5.0259  -5.0207  -5.0143  -5.0123  -4.9959
    -4.4372  -3.9497  -3.9253  -3.8420  -3.4080  -3.3366  -3.3031  -2.7393
    -0.7769  -0.7083  -0.6647  -0.6145  -0.5952  -0.5332  -0.4683  -0.4209
    -0.3940  -0.3288  -0.2549  -0.1517   0.4672   0.4785   0.5033   0.6186
     0.6623   0.6946   0.7151   0.7380   0.7809   0.8907   0.9199   0.9363
     0.9915   1.0387   1.0613   1.0889   1.1323   1.1622   1.1801   1.2076
     1.2377   1.2485   1.2655   1.2827   1.3263   1.3316   1.3614   1.3938
     1.4143   1.4356   1.4496   1.4609   1.4838   1.5031   1.5219   1.5449
     1.5556   1.5800   1.6051   1.6322   1.6490   1.6597   1.6948   1.7292
     1.7569   1.8072   1.8612   1.9451   1.9707   2.0146   2.0467   2.0977
     2.1296   2.1968   2.2366   2.3380   2.6679   2.7291   2.7977   3.1733

          k =-0.1250-0.1250 0.3750 (132608 PWs)   bands (ev):

   -18.5229 -18.4669 -18.4433 -18.4162 -18.3797 -18.3546 -18.3451 -18.3397
   -18.3300 -18.3182 -18.3147 -18.3041 -18.3039 -18.2957 -18.2927 -18.2643
   -18.2638 -18.2615 -18.2594 -18.2527 -18.2507 -18.2467 -18.2464 -18.2451
   -18.2435 -18.2418 -18.2317 -18.2289 -18.2284 -18.2172 -18.2118 -18.2055
   -18.2009 -18.1353 -18.1276 -18.1194 -18.1187 -18.1124 -18.1121 -18.1049
   -18.1039 -18.0949 -18.0893 -18.0713 -18.0584 -18.0539 -18.0428 -18.0377
    -9.4093  -9.2889  -9.2501  -9.1837  -9.1244  -9.0997  -9.0785  -9.0248
    -8.9934  -8.9751  -8.9323  -8.9055  -8.8780  -8.8601  -8.8345  -8.7947
    -8.7848  -8.7536  -8.7100  -8.7002  -8.6831  -8.6581  -8.6064  -8.5186
    -5.2902  -5.2816  -5.2752  -5.2340  -5.2243  -5.2198  -5.2127  -5.2013
    -5.1958  -5.1878  -5.1812  -5.1762  -5.1684  -5.1650  -5.1403  -5.0487
    -5.0375  -5.0358  -5.0300  -5.0255  -5.0211  -5.0148  -5.0126  -4.9959
    -4.3166  -4.0734  -3.8400  -3.7255  -3.5717  -3.4871  -3.2079  -2.9591
    -0.7260  -0.6656  -0.6464  -0.5878  -0.5488  -0.4721  -0.3490  -0.2803
    -0.1030  -0.0481   0.0194   0.0723   0.4115   0.4568   0.5005   0.5275
     0.5639   0.5800   0.6354   0.6641   0.6877   0.7377   0.7747   0.8362
     0.8677   0.9254   0.9657   1.0171   1.0824   1.1169   1.1248   1.1577
     1.2094   1.2293   1.2622   1.2886   1.3092   1.3548   1.3648   1.3848
     1.4161   1.4381   1.4699   1.4820   1.5215   1.5286   1.5503   1.5702
     1.5969   1.6085   1.6232   1.6533   1.6779   1.7063   1.7268   1.7562
     1.7957   1.8276   1.8539   1.8825   1.9385   1.9545   1.9745   2.0100
     2.0342   2.1494   2.2005   2.2852   2.4283   2.5793   2.7133   2.9043

          k =-0.1250 0.1250-0.3750 (132608 PWs)   bands (ev):

   -18.5229 -18.4669 -18.4433 -18.4162 -18.3797 -18.3546 -18.3451 -18.3397
   -18.3300 -18.3182 -18.3147 -18.3041 -18.3039 -18.2957 -18.2927 -18.2643
   -18.2638 -18.2615 -18.2594 -18.2527 -18.2507 -18.2467 -18.2464 -18.2451
   -18.2435 -18.2418 -18.2317 -18.2289 -18.2284 -18.2172 -18.2118 -18.2055
   -18.2009 -18.1353 -18.1276 -18.1194 -18.1187 -18.1124 -18.1121 -18.1049
   -18.1039 -18.0949 -18.0893 -18.0713 -18.0584 -18.0539 -18.0428 -18.0377
    -9.4108  -9.2811  -9.2431  -9.2057  -9.1299  -9.0972  -9.0596  -9.0244
    -8.9969  -8.9793  -8.9318  -8.9024  -8.8840  -8.8543  -8.8371  -8.7920
    -8.7890  -8.7525  -8.7073  -8.7031  -8.6865  -8.6546  -8.6057  -8.5191
    -5.2903  -5.2816  -5.2752  -5.2340  -5.2242  -5.2197  -5.2127  -5.2013
    -5.1961  -5.1881  -5.1809  -5.1761  -5.1681  -5.1648  -5.1404  -5.0487
    -5.0373  -5.0361  -5.0294  -5.0260  -5.0212  -5.0144  -5.0129  -4.9959
    -4.3179  -4.0723  -3.8241  -3.7452  -3.5741  -3.4813  -3.2083  -2.9581
    -0.7242  -0.6698  -0.6463  -0.5888  -0.5383  -0.4738  -0.3456  -0.2834
    -0.1190  -0.0518   0.0095   0.0812   0.4292   0.4569   0.4970   0.5167
     0.5744   0.5970   0.6359   0.6518   0.6981   0.7430   0.7738   0.8263
     0.8757   0.9435   0.9532   1.0028   1.0566   1.1055   1.1487   1.1856
     1.2006   1.2306   1.2608   1.2892   1.3163   1.3458   1.3732   1.3935
     1.4096   1.4236   1.4638   1.4775   1.5056   1.5228   1.5602   1.5661
     1.6035   1.6183   1.6327   1.6384   1.6765   1.7112   1.7274   1.7572
     1.7970   1.8120   1.8576   1.8932   1.9393   1.9494   1.9818   1.9994
     2.0369   2.1185   2.2268   2.3031   2.4226   2.5727   2.7062   2.9199

          k = 0.1250-0.1250-0.3750 (132608 PWs)   bands (ev):

   -18.5229 -18.4669 -18.4433 -18.4162 -18.3797 -18.3546 -18.3451 -18.3397
   -18.3300 -18.3182 -18.3147 -18.3041 -18.3039 -18.2957 -18.2927 -18.2643
   -18.2638 -18.2615 -18.2594 -18.2527 -18.2507 -18.2467 -18.2464 -18.2451
   -18.2435 -18.2418 -18.2317 -18.2289 -18.2284 -18.2172 -18.2118 -18.2055
   -18.2009 -18.1353 -18.1276 -18.1194 -18.1187 -18.1124 -18.1121 -18.1049
   -18.1039 -18.0949 -18.0893 -18.0713 -18.0584 -18.0539 -18.0428 -18.0377
    -9.4104  -9.2843  -9.2410  -9.2046  -9.1337  -9.0873  -9.0636  -9.0260
    -8.9936  -8.9862  -8.9318  -8.9010  -8.8838  -8.8554  -8.8317  -8.7955
    -8.7876  -8.7550  -8.7114  -8.6995  -8.6812  -8.6587  -8.6053  -8.5191
    -5.2901  -5.2817  -5.2752  -5.2341  -5.2243  -5.2196  -5.2127  -5.2016
    -5.1956  -5.1882  -5.1814  -5.1759  -5.1684  -5.1646  -5.1404  -5.0487
    -5.0376  -5.0356  -5.0300  -5.0255  -5.0211  -5.0147  -5.0126  -4.9960
    -4.3173  -4.0729  -3.8258  -3.7409  -3.5818  -3.4758  -3.2088  -2.9574
    -0.7328  -0.6735  -0.6476  -0.5883  -0.5318  -0.4703  -0.3486  -0.2948
    -0.1013  -0.0447   0.0304   0.0764   0.4115   0.4502   0.5003   0.5216
     0.5750   0.5989   0.6349   0.6560   0.6821   0.7304   0.7717   0.8320
     0.8612   0.9391   0.9537   1.0297   1.0553   1.0959   1.1462   1.1822
     1.2218   1.2448   1.2641   1.2879   1.3113   1.3443   1.3589   1.3717
     1.4085   1.4396   1.4658   1.4872   1.5029   1.5357   1.5558   1.5844
     1.6025   1.6083   1.6218   1.6409   1.6738   1.6951   1.7194   1.7514
     1.7997   1.8389   1.8462   1.8918   1.9343   1.9510   1.9756   2.0101
     2.0516   2.1425   2.2068   2.2844   2.4355   2.5729   2.7071   2.9158

          k = 0.3750-0.1250 0.1250 (132608 PWs)   bands (ev):

   -18.5229 -18.4669 -18.4433 -18.4162 -18.3797 -18.3546 -18.3451 -18.3397
   -18.3300 -18.3182 -18.3147 -18.3041 -18.3039 -18.2957 -18.2927 -18.2644
   -18.2638 -18.2614 -18.2594 -18.2527 -18.2507 -18.2467 -18.2464 -18.2451
   -18.2435 -18.2418 -18.2317 -18.2289 -18.2284 -18.2172 -18.2118 -18.2055
   -18.2009 -18.1353 -18.1276 -18.1194 -18.1187 -18.1124 -18.1121 -18.1049
   -18.1039 -18.0949 -18.0893 -18.0713 -18.0584 -18.0539 -18.0428 -18.0377
    -9.4032  -9.3194  -9.2222  -9.1823  -9.1319  -9.1174  -9.0353  -9.0248
    -8.9882  -8.9760  -8.9375  -8.9216  -8.8976  -8.8399  -8.8215  -8.8100
    -8.8016  -8.7685  -8.7287  -8.6863  -8.6617  -8.6418  -8.5893  -8.5408
    -5.2903  -5.2818  -5.2753  -5.2339  -5.2232  -5.2201  -5.2132  -5.2019
    -5.1962  -5.1874  -5.1805  -5.1766  -5.1681  -5.1648  -5.1404  -5.0488
    -5.0375  -5.0349  -5.0307  -5.0252  -5.0218  -5.0149  -5.0122  -4.9962
    -4.3164  -4.1001  -3.8107  -3.7349  -3.5558  -3.5115  -3.1857  -2.9439
    -0.7246  -0.6727  -0.6224  -0.5780  -0.5318  -0.4578  -0.4245  -0.3497
    -0.1577  -0.0932   0.0006   0.1477   0.3417   0.4820   0.5159   0.5542
     0.5770   0.5962   0.6098   0.6660   0.7139   0.7263   0.7891   0.8135
     0.9129   0.9570   1.0174   1.0385   1.0537   1.1042   1.1274   1.1629
     1.2014   1.2347   1.2817   1.2929   1.3222   1.3553   1.3672   1.3839
     1.4122   1.4305   1.4481   1.4841   1.4945   1.5152   1.5454   1.5695
     1.5776   1.6129   1.6446   1.6518   1.6734   1.6848   1.7250   1.7409
     1.7811   1.8202   1.8282   1.8675   1.9244   2.0170   2.0294   2.0528
     2.0717   2.1429   2.2195   2.3310   2.4275   2.4868   2.7910   2.9188

          k =-0.3750-0.1250-0.1250 (132608 PWs)   bands (ev):

   -18.5229 -18.4669 -18.4433 -18.4162 -18.3797 -18.3546 -18.3451 -18.3397
   -18.3300 -18.3182 -18.3147 -18.3041 -18.3039 -18.2957 -18.2927 -18.2644
   -18.2638 -18.2614 -18.2594 -18.2527 -18.2507 -18.2467 -18.2464 -18.2451
   -18.2435 -18.2418 -18.2317 -18.2289 -18.2284 -18.2172 -18.2118 -18.2055
   -18.2009 -18.1353 -18.1276 -18.1194 -18.1187 -18.1124 -18.1121 -18.1049
   -18.1039 -18.0949 -18.0893 -18.0713 -18.0584 -18.0539 -18.0428 -18.0377
    -9.4008  -9.3271  -9.2137  -9.1770  -9.1505  -9.0968  -9.0479  -9.0278
    -8.9872  -8.9770  -8.9340  -8.9254  -8.8895  -8.8454  -8.8185  -8.8118
    -8.7987  -8.7696  -8.7291  -8.6850  -8.6617  -8.6429  -8.5907  -8.5397
    -5.2903  -5.2818  -5.2752  -5.2340  -5.2232  -5.2199  -5.2131  -5.2022
    -5.1963  -5.1871  -5.1806  -5.1764  -5.1682  -5.1651  -5.1404  -5.0489
    -5.0374  -5.0349  -5.0306  -5.0251  -5.0217  -5.0149  -5.0122  -4.9962
    -4.3142  -4.1045  -3.8078  -3.7344  -3.5529  -3.5162  -3.1846  -2.9441
    -0.7329  -0.6792  -0.6162  -0.5972  -0.4986  -0.4510  -0.4222  -0.3589
    -0.1611  -0.0900  -0.0052   0.1495   0.3397   0.4918   0.5147   0.5531
     0.5678   0.5985   0.6203   0.6688   0.6994   0.7298   0.7867   0.8147
     0.9067   0.9508   1.0036   1.0549   1.0692   1.0854   1.1379   1.1633
     1.2084   1.2392   1.2748   1.2961   1.3176   1.3378   1.3608   1.3862
     1.4091   1.4414   1.4566   1.4802   1.4902   1.5082   1.5548   1.5637
     1.5929   1.6215   1.6385   1.6563   1.6722   1.7080   1.7226   1.7331
     1.7675   1.8172   1.8341   1.8643   1.9051   2.0152   2.0418   2.0567
     2.0750   2.1427   2.2025   2.3355   2.4334   2.4956   2.8052   2.8987

          k = 0.3750 0.1250-0.1250 (132608 PWs)   bands (ev):

   -18.5229 -18.4669 -18.4433 -18.4162 -18.3797 -18.3546 -18.3451 -18.3397
   -18.3300 -18.3182 -18.3147 -18.3041 -18.3039 -18.2957 -18.2927 -18.2644
   -18.2638 -18.2614 -18.2594 -18.2527 -18.2507 -18.2467 -18.2464 -18.2451
   -18.2435 -18.2418 -18.2317 -18.2289 -18.2284 -18.2172 -18.2118 -18.2055
   -18.2009 -18.1353 -18.1276 -18.1194 -18.1187 -18.1124 -18.1121 -18.1049
   -18.1039 -18.0949 -18.0893 -18.0713 -18.0584 -18.0539 -18.0428 -18.0377
    -9.4004  -9.3276  -9.2187  -9.1712  -9.1382  -9.1157  -9.0458  -9.0211
    -8.9912  -8.9710  -8.9397  -8.9222  -8.8947  -8.8429  -8.8205  -8.8106
    -8.7995  -8.7674  -8.7284  -8.6858  -8.6598  -8.6451  -8.5908  -8.5395
    -5.2902  -5.2818  -5.2753  -5.2339  -5.2234  -5.2201  -5.2131  -5.2019
    -5.1961  -5.1870  -5.1806  -5.1766  -5.1684  -5.1650  -5.1403  -5.0488
    -5.0377  -5.0345  -5.0312  -5.0249  -5.0216  -5.0151  -5.0120  -4.9962
    -4.3142  -4.1050  -3.8120  -3.7277  -3.5602  -3.5101  -3.1838  -2.9461
    -0.7163  -0.6801  -0.6358  -0.5766  -0.5160  -0.4762  -0.4074  -0.3554
    -0.1470  -0.0867  -0.0085   0.1536   0.3428   0.4882   0.5039   0.5325
     0.5638   0.6021   0.6190   0.6679   0.7004   0.7228   0.8115   0.8312
     0.9039   0.9402   1.0022   1.0430   1.0723   1.0967   1.1277   1.1791
     1.2053   1.2350   1.2709   1.2840   1.3064   1.3563   1.3683   1.3889
     1.4221   1.4382   1.4436   1.4682   1.4980   1.5319   1.5409   1.5647
     1.5940   1.6169   1.6382   1.6488   1.6691   1.7077   1.7227   1.7432
     1.7661   1.8351   1.8415   1.8677   1.9010   2.0101   2.0241   2.0640
     2.0792   2.1459   2.2040   2.3202   2.4416   2.4899   2.8043   2.8943

          k =-0.3750 0.1250 0.1250 (132608 PWs)   bands (ev):

   -18.5229 -18.4669 -18.4433 -18.4162 -18.3797 -18.3546 -18.3451 -18.3397
   -18.3300 -18.3182 -18.3147 -18.3041 -18.3039 -18.2957 -18.2927 -18.2644
   -18.2638 -18.2614 -18.2594 -18.2527 -18.2507 -18.2467 -18.2464 -18.2451
   -18.2435 -18.2418 -18.2317 -18.2289 -18.2284 -18.2172 -18.2118 -18.2055
   -18.2009 -18.1353 -18.1276 -18.1194 -18.1187 -18.1124 -18.1121 -18.1049
   -18.1039 -18.0949 -18.0893 -18.0713 -18.0584 -18.0539 -18.0428 -18.0377
    -9.4026  -9.3209  -9.2198  -9.1872  -9.1359  -9.1033  -9.0407  -9.0252
    -8.9905  -8.9810  -8.9327  -8.9220  -8.8937  -8.8425  -8.8224  -8.8086
    -8.7982  -8.7741  -8.7267  -8.6859  -8.6598  -8.6441  -8.5893  -8.5406
    -5.2902  -5.2818  -5.2753  -5.2340  -5.2233  -5.2201  -5.2131  -5.2022
    -5.1958  -5.1874  -5.1808  -5.1763  -5.1684  -5.1646  -5.1404  -5.0488
    -5.0378  -5.0344  -5.0311  -5.0249  -5.0216  -5.0151  -5.0120  -4.9963
    -4.3160  -4.1003  -3.8124  -3.7318  -3.5613  -3.5092  -3.1837  -2.9439
    -0.7452  -0.6680  -0.6182  -0.5772  -0.5254  -0.4723  -0.4106  -0.3463
    -0.1456  -0.0915  -0.0021   0.1554   0.3420   0.4856   0.4987   0.5307
     0.5732   0.5978   0.6229   0.6650   0.7036   0.7381   0.7845   0.8406
     0.8939   0.9394   1.0098   1.0400   1.0628   1.1051   1.1332   1.1768
     1.2186   1.2266   1.2805   1.2983   1.3022   1.3521   1.3740   1.3919
     1.4002   1.4460   1.4592   1.4696   1.4890   1.5070   1.5507   1.5655
     1.5873   1.6103   1.6333   1.6521   1.6619   1.7086   1.7149   1.7394
     1.7675   1.8393   1.8534   1.8648   1.9076   2.0022   2.0212   2.0622
     2.0694   2.1574   2.2284   2.3151   2.4379   2.4850   2.7949   2.9156

          k =-0.1250 0.3750 0.1250 (132608 PWs)   bands (ev):

   -18.5229 -18.4669 -18.4433 -18.4162 -18.3797 -18.3546 -18.3451 -18.3397
   -18.3300 -18.3182 -18.3147 -18.3041 -18.3039 -18.2957 -18.2927 -18.2644
   -18.2638 -18.2614 -18.2594 -18.2527 -18.2507 -18.2467 -18.2464 -18.2451
   -18.2435 -18.2418 -18.2317 -18.2289 -18.2284 -18.2172 -18.2118 -18.2055
   -18.2009 -18.1353 -18.1276 -18.1193 -18.1188 -18.1124 -18.1121 -18.1049
   -18.1039 -18.0949 -18.0893 -18.0713 -18.0584 -18.0539 -18.0428 -18.0377
    -9.4065  -9.3029  -9.2239  -9.1951  -9.1391  -9.1149  -9.0481  -9.0212
    -8.9969  -8.9770  -8.9300  -8.9141  -8.8752  -8.8495  -8.8305  -8.7951
    -8.7911  -8.7554  -8.7305  -8.7021  -8.6823  -8.6467  -8.5942  -8.5256
    -5.2904  -5.2818  -5.2754  -5.2339  -5.2239  -5.2196  -5.2127  -5.2016
    -5.1956  -5.1877  -5.1814  -5.1760  -5.1684  -5.1646  -5.1403  -5.0486
    -5.0384  -5.0361  -5.0298  -5.0260  -5.0204  -5.0145  -5.0124  -4.9959
    -4.3051  -4.0738  -3.7967  -3.7688  -3.5457  -3.5179  -3.2399  -2.9617
    -0.7222  -0.6471  -0.6180  -0.5321  -0.4479  -0.4219  -0.4026  -0.2987
    -0.1631  -0.0929   0.0232   0.0643   0.4129   0.4742   0.4928   0.5276
     0.5582   0.5978   0.6256   0.6548   0.6898   0.7130   0.7553   0.8201
     0.8487   0.8907   0.9757   1.0522   1.0761   1.1218   1.1399   1.1752
     1.2160   1.2602   1.2846   1.3024   1.3128   1.3450   1.3650   1.3907
     1.4028   1.4181   1.4455   1.4644   1.4814   1.5019   1.5532   1.5720
     1.5971   1.6164   1.6321   1.6636   1.6782   1.7076   1.7259   1.7632
     1.8008   1.8147   1.8454   1.8767   1.8962   1.9383   1.9775   2.0462
     2.0866   2.1313   2.2086   2.3113   2.4066   2.4749   2.7445   2.9097

          k =-0.1250-0.3750-0.1250 (132608 PWs)   bands (ev):

   -18.5229 -18.4669 -18.4433 -18.4162 -18.3797 -18.3546 -18.3451 -18.3397
   -18.3300 -18.3182 -18.3147 -18.3041 -18.3039 -18.2957 -18.2927 -18.2644
   -18.2638 -18.2614 -18.2594 -18.2527 -18.2507 -18.2467 -18.2464 -18.2451
   -18.2435 -18.2418 -18.2317 -18.2289 -18.2284 -18.2172 -18.2118 -18.2055
   -18.2009 -18.1353 -18.1276 -18.1193 -18.1188 -18.1124 -18.1121 -18.1049
   -18.1039 -18.0949 -18.0893 -18.0713 -18.0584 -18.0539 -18.0428 -18.0377
    -9.4049  -9.3120  -9.2065  -9.1903  -9.1565  -9.1142  -9.0519  -9.0149
    -8.9964  -8.9754  -8.9304  -8.9193  -8.8764  -8.8427  -8.8298  -8.7999
    -8.7908  -8.7535  -8.7290  -8.7026  -8.6835  -8.6467  -8.5949  -8.5250
    -5.2905  -5.2818  -5.2753  -5.2339  -5.2239  -5.2196  -5.2126  -5.2016
    -5.1958  -5.1874  -5.1814  -5.1761  -5.1681  -5.1650  -5.1402  -5.0487
    -5.0379  -5.0366  -5.0292  -5.0264  -5.0205  -5.0143  -5.0126  -4.9959
    -4.3032  -4.0796  -3.7919  -3.7649  -3.5491  -3.5196  -3.2394  -2.9621
    -0.7050  -0.6568  -0.6164  -0.5564  -0.4484  -0.4107  -0.3806  -0.3139
    -0.1588  -0.0953   0.0262   0.0506   0.4087   0.4780   0.5053   0.5157
     0.5591   0.5944   0.6241   0.6570   0.6819   0.7277   0.7558   0.8118
     0.8635   0.8922   0.9692   1.0289   1.1056   1.1154   1.1523   1.1781
     1.2375   1.2474   1.2646   1.2846   1.3164   1.3389   1.3723   1.3965
     1.4053   1.4290   1.4454   1.4618   1.4870   1.5217   1.5528   1.5631
     1.5958   1.6037   1.6417   1.6582   1.6801   1.7088   1.7293   1.7622
     1.7913   1.8146   1.8299   1.8682   1.8867   1.9490   1.9787   2.0338
     2.0974   2.1667   2.2003   2.2726   2.4153   2.4935   2.7491   2.9024

          k = 0.1250 0.3750-0.1250 (132608 PWs)   bands (ev):

   -18.5229 -18.4669 -18.4433 -18.4162 -18.3797 -18.3546 -18.3451 -18.3397
   -18.3300 -18.3182 -18.3147 -18.3041 -18.3039 -18.2957 -18.2927 -18.2644
   -18.2638 -18.2614 -18.2594 -18.2527 -18.2507 -18.2467 -18.2464 -18.2451
   -18.2435 -18.2418 -18.2317 -18.2289 -18.2284 -18.2172 -18.2118 -18.2055
   -18.2009 -18.1353 -18.1276 -18.1193 -18.1188 -18.1124 -18.1121 -18.1049
   -18.1039 -18.0949 -18.0893 -18.0713 -18.0584 -18.0539 -18.0428 -18.0377
    -9.4048  -9.3109  -9.2188  -9.1832  -9.1456  -9.1174  -9.0558  -9.0179
    -8.9973  -8.9715  -8.9302  -8.9129  -8.8859  -8.8441  -8.8252  -8.8020
    -8.7908  -8.7508  -8.7289  -8.7028  -8.6832  -8.6478  -8.5950  -8.5249
    -5.2904  -5.2818  -5.2754  -5.2339  -5.2240  -5.2198  -5.2126  -5.2013
    -5.1960  -5.1873  -5.1811  -5.1762  -5.1685  -5.1649  -5.1401  -5.0486
    -5.0382  -5.0363  -5.0298  -5.0260  -5.0204  -5.0145  -5.0125  -4.9958
    -4.3034  -4.0789  -3.7982  -3.7613  -3.5468  -3.5189  -3.2387  -2.9641
    -0.7153  -0.6558  -0.6090  -0.5344  -0.4581  -0.4121  -0.3879  -0.3067
    -0.1704  -0.0873   0.0158   0.0495   0.4102   0.4869   0.4995   0.5169
     0.5491   0.5939   0.6369   0.6629   0.6784   0.7143   0.7718   0.8218
     0.8505   0.9022   0.9688   1.0544   1.0814   1.1050   1.1304   1.1621
     1.2174   1.2429   1.2760   1.2999   1.3217   1.3477   1.3684   1.3848
     1.4179   1.4345   1.4584   1.4790   1.4923   1.5108   1.5451   1.5565
     1.5872   1.6118   1.6277   1.6683   1.6805   1.7185   1.7301   1.7604
     1.7998   1.8132   1.8388   1.8723   1.8966   1.9399   1.9789   2.0200
     2.0968   2.1765   2.2027   2.2602   2.4161   2.4862   2.7491   2.8993

          k = 0.1250-0.3750 0.1250 (132608 PWs)   bands (ev):

   -18.5229 -18.4669 -18.4433 -18.4162 -18.3797 -18.3546 -18.3451 -18.3397
   -18.3300 -18.3182 -18.3147 -18.3041 -18.3039 -18.2957 -18.2927 -18.2644
   -18.2638 -18.2614 -18.2594 -18.2527 -18.2507 -18.2467 -18.2464 -18.2451
   -18.2435 -18.2418 -18.2317 -18.2289 -18.2284 -18.2172 -18.2118 -18.2055
   -18.2009 -18.1353 -18.1276 -18.1193 -18.1188 -18.1124 -18.1121 -18.1049
   -18.1039 -18.0949 -18.0893 -18.0713 -18.0584 -18.0539 -18.0428 -18.0377
    -9.4069  -9.3022  -9.2236  -9.1906  -9.1421  -9.1226  -9.0493  -9.0144
    -8.9932  -8.9761  -8.9312  -8.9125  -8.8854  -8.8450  -8.8276  -8.7996
    -8.7914  -8.7522  -8.7295  -8.7035  -8.6834  -8.6456  -8.5943  -8.5256
    -5.2905  -5.2818  -5.2753  -5.2339  -5.2239  -5.2197  -5.2127  -5.2013
    -5.1959  -5.1877  -5.1811  -5.1763  -5.1680  -5.1648  -5.1403  -5.0486
    -5.0381  -5.0366  -5.0292  -5.0265  -5.0205  -5.0143  -5.0126  -4.9958
    -4.3056  -4.0741  -3.8002  -3.7609  -3.5457  -3.5229  -3.2381  -2.9626
    -0.7079  -0.6404  -0.6195  -0.5509  -0.4573  -0.4179  -0.3903  -0.2946
    -0.1780  -0.0953   0.0236   0.0560   0.4126   0.4685   0.4937   0.5298
     0.5661   0.6042   0.6318   0.6644   0.6793   0.7044   0.7667   0.8274
     0.8535   0.8798   0.9695   1.0246   1.0967   1.1203   1.1497   1.1826
     1.2146   1.2671   1.2837   1.2984   1.3218   1.3492   1.3708   1.3845
     1.4093   1.4263   1.4475   1.4662   1.4876   1.5039   1.5392   1.5519
     1.5885   1.6059   1.6368   1.6561   1.6730   1.7132   1.7281   1.7569
     1.7943   1.8197   1.8451   1.8779   1.9062   1.9330   1.9769   2.0463
     2.0902   2.1308   2.2022   2.3111   2.4203   2.4651   2.7494   2.9107

          k =-0.1250-0.3750 0.3750 (132616 PWs)   bands (ev):

   -18.5229 -18.4669 -18.4433 -18.4162 -18.3797 -18.3546 -18.3451 -18.3397
   -18.3300 -18.3182 -18.3147 -18.3041 -18.3039 -18.2957 -18.2927 -18.2643
   -18.2638 -18.2615 -18.2594 -18.2527 -18.2507 -18.2467 -18.2464 -18.2452
   -18.2435 -18.2418 -18.2317 -18.2289 -18.2284 -18.2172 -18.2118 -18.2055
   -18.2009 -18.1353 -18.1276 -18.1193 -18.1188 -18.1124 -18.1121 -18.1049
   -18.1039 -18.0949 -18.0893 -18.0713 -18.0584 -18.0539 -18.0428 -18.0377
    -9.3933  -9.2998  -9.2390  -9.1804  -9.1497  -9.1200  -9.0749  -9.0235
    -9.0158  -8.9813  -8.9133  -8.8959  -8.8650  -8.8525  -8.8190  -8.7994
    -8.7789  -8.7491  -8.7147  -8.7035  -8.6907  -8.6577  -8.6048  -8.5256
    -5.2902  -5.2817  -5.2751  -5.2341  -5.2242  -5.2199  -5.2127  -5.2013
    -5.1960  -5.1875  -5.1806  -5.1759  -5.1686  -5.1650  -5.1404  -5.0485
    -5.0378  -5.0359  -5.0300  -5.0255  -5.0209  -5.0149  -5.0128  -4.9958
    -4.1840  -3.9877  -3.9163  -3.7055  -3.6467  -3.4435  -3.3862  -3.1654
    -0.6397  -0.5910  -0.5189  -0.3778  -0.3439  -0.2423  -0.1688  -0.1328
    -0.0465  -0.0103   0.0929   0.1510   0.3217   0.4212   0.4587   0.5154
     0.5299   0.5444   0.5549   0.5875   0.6366   0.6592   0.6774   0.7298
     0.8482   0.9002   0.9326   0.9875   1.0159   1.0361   1.0511   1.1076
     1.1327   1.1527   1.2160   1.2441   1.2535   1.3058   1.3234   1.3450
     1.3858   1.4371   1.4676   1.4969   1.5258   1.5426   1.5868   1.5943
     1.6154   1.6451   1.6788   1.6949   1.7326   1.7510   1.7699   1.7808
     1.8064   1.8169   1.8529   1.8708   1.8967   1.9172   1.9400   1.9724
     1.9978   2.0755   2.1090   2.2110   2.2621   2.4060   2.4959   2.6264

          k =-0.1250 0.3750-0.3750 (132616 PWs)   bands (ev):

   -18.5229 -18.4669 -18.4433 -18.4162 -18.3797 -18.3546 -18.3451 -18.3397
   -18.3300 -18.3182 -18.3147 -18.3041 -18.3039 -18.2957 -18.2927 -18.2643
   -18.2638 -18.2615 -18.2594 -18.2527 -18.2507 -18.2467 -18.2464 -18.2451
   -18.2435 -18.2418 -18.2317 -18.2289 -18.2284 -18.2172 -18.2118 -18.2055
   -18.2009 -18.1353 -18.1276 -18.1193 -18.1188 -18.1124 -18.1121 -18.1049
   -18.1039 -18.0949 -18.0893 -18.0713 -18.0584 -18.0539 -18.0428 -18.0377
    -9.3956  -9.2911  -9.2335  -9.1987  -9.1566  -9.1187  -9.0538  -9.0289
    -9.0158  -8.9837  -8.9134  -8.8943  -8.8693  -8.8481  -8.8243  -8.7974
    -8.7777  -8.7506  -8.7105  -8.7056  -8.6948  -8.6551  -8.6038  -8.5262
    -5.2903  -5.2817  -5.2750  -5.2341  -5.2241  -5.2199  -5.2127  -5.2013
    -5.1962  -5.1879  -5.1805  -5.1759  -5.1682  -5.1649  -5.1405  -5.0485
    -5.0376  -5.0362  -5.0294  -5.0260  -5.0209  -5.0145  -5.0130  -4.9958
    -4.1878  -3.9835  -3.9081  -3.6992  -3.6701  -3.4376  -3.3840  -3.1650
    -0.6366  -0.5840  -0.5277  -0.3817  -0.3277  -0.2578  -0.1673  -0.1326
    -0.0554  -0.0177   0.0969   0.1501   0.3228   0.4234   0.4783   0.4987
     0.5263   0.5384   0.5808   0.5970   0.6142   0.6672   0.6981   0.7255
     0.8315   0.8938   0.9450   0.9747   1.0197   1.0303   1.0630   1.1106
     1.1322   1.1639   1.2215   1.2376   1.2734   1.2980   1.3236   1.3642
     1.3812   1.4154   1.4434   1.4852   1.5078   1.5442   1.5804   1.6029
     1.6257   1.6606   1.6829   1.6967   1.7142   1.7392   1.7704   1.7727
     1.8051   1.8292   1.8517   1.8674   1.9009   1.9305   1.9335   1.9735
     2.0084   2.0806   2.0999   2.2071   2.2687   2.4018   2.4948   2.6372

          k = 0.1250-0.3750-0.3750 (132616 PWs)   bands (ev):

   -18.5229 -18.4669 -18.4433 -18.4162 -18.3797 -18.3546 -18.3451 -18.3397
   -18.3300 -18.3182 -18.3147 -18.3041 -18.3039 -18.2957 -18.2927 -18.2643
   -18.2638 -18.2615 -18.2594 -18.2527 -18.2507 -18.2467 -18.2464 -18.2451
   -18.2435 -18.2418 -18.2317 -18.2289 -18.2284 -18.2172 -18.2118 -18.2055
   -18.2009 -18.1353 -18.1276 -18.1193 -18.1188 -18.1124 -18.1121 -18.1049
   -18.1039 -18.0949 -18.0893 -18.0713 -18.0584 -18.0539 -18.0428 -18.0377
    -9.3950  -9.2926  -9.2321  -9.2029  -9.1561  -9.1087  -9.0516  -9.0386
    -9.0161  -8.9854  -8.9142  -8.8952  -8.8600  -8.8486  -8.8299  -8.7947
    -8.7774  -8.7525  -8.7177  -8.7020  -8.6886  -8.6582  -8.6035  -8.5261
    -5.2902  -5.2817  -5.2751  -5.2342  -5.2241  -5.2198  -5.2127  -5.2016
    -5.1958  -5.1879  -5.1808  -5.1756  -5.1686  -5.1647  -5.1405  -5.0485
    -5.0379  -5.0357  -5.0300  -5.0255  -5.0209  -5.0148  -5.0127  -4.9959
    -4.1865  -3.9821  -3.9104  -3.7183  -3.6509  -3.4243  -3.3991  -3.1631
    -0.6425  -0.5929  -0.5190  -0.3787  -0.3413  -0.2545  -0.1700  -0.1240
    -0.0791   0.0107   0.1264   0.1686   0.3367   0.4052   0.4474   0.4812
     0.5065   0.5374   0.5878   0.6128   0.6335   0.6506   0.6822   0.7290
     0.8386   0.8930   0.9578   0.9720   0.9872   1.0489   1.0640   1.1079
     1.1428   1.1706   1.2098   1.2341   1.2667   1.2948   1.3326   1.3634
     1.3797   1.4152   1.4305   1.4926   1.5103   1.5559   1.5904   1.6113
     1.6204   1.6493   1.6812   1.6977   1.7158   1.7345   1.7515   1.7910
     1.8227   1.8342   1.8539   1.8685   1.8886   1.9217   1.9490   1.9712
     2.0224   2.0549   2.1184   2.2063   2.2604   2.3937   2.5025   2.6312

          k = 0.3750 0.1250-0.3750 (132616 PWs)   bands (ev):

   -18.5229 -18.4669 -18.4433 -18.4162 -18.3797 -18.3546 -18.3451 -18.3397
   -18.3300 -18.3182 -18.3147 -18.3041 -18.3039 -18.2957 -18.2927 -18.2643
   -18.2638 -18.2615 -18.2594 -18.2527 -18.2507 -18.2467 -18.2464 -18.2451
   -18.2435 -18.2418 -18.2317 -18.2289 -18.2284 -18.2172 -18.2118 -18.2055
   -18.2009 -18.1353 -18.1276 -18.1194 -18.1187 -18.1124 -18.1121 -18.1049
   -18.1039 -18.0949 -18.0893 -18.0713 -18.0584 -18.0539 -18.0428 -18.0377
    -9.3893  -9.3164  -9.2360  -9.1641  -9.1513  -9.1288  -9.0573  -9.0282
    -9.0022  -8.9781  -8.9315  -8.9066  -8.8696  -8.8414  -8.8290  -8.8038
    -8.7930  -8.7526  -8.7096  -8.6942  -8.6699  -8.6616  -8.5935  -8.5397
    -5.2902  -5.2817  -5.2754  -5.2335  -5.2232  -5.2201  -5.2131  -5.2016
    -5.1962  -5.1872  -5.1810  -5.1769  -5.1681  -5.1649  -5.1403  -5.0487
    -5.0375  -5.0350  -5.0320  -5.0242  -5.0219  -5.0158  -5.0114  -4.9959
    -4.1958  -3.9901  -3.9536  -3.7385  -3.6082  -3.3969  -3.3573  -3.1457
    -0.6872  -0.6575  -0.5725  -0.4822  -0.3318  -0.2407  -0.1660  -0.1053
    -0.0207   0.0438   0.0524   0.1929   0.2830   0.4115   0.4432   0.4866
     0.5264   0.5394   0.5969   0.6271   0.6443   0.6742   0.7139   0.7539
     0.8303   0.8607   0.8931   0.9430   1.0294   1.0588   1.0783   1.1395
     1.1873   1.2014   1.2176   1.2401   1.2720   1.3034   1.3151   1.3558
     1.3984   1.4107   1.4541   1.4843   1.5050   1.5419   1.5757   1.5960
     1.6240   1.6514   1.6554   1.6828   1.7000   1.7384   1.7610   1.7977
     1.8105   1.8250   1.8560   1.8814   1.9135   1.9478   1.9641   1.9951
     2.0287   2.0447   2.1205   2.2237   2.3106   2.4298   2.5478   2.6412

          k =-0.3750-0.1250-0.3750 (132616 PWs)   bands (ev):

   -18.5229 -18.4669 -18.4433 -18.4162 -18.3797 -18.3546 -18.3451 -18.3397
   -18.3300 -18.3182 -18.3147 -18.3041 -18.3039 -18.2957 -18.2927 -18.2643
   -18.2638 -18.2615 -18.2594 -18.2527 -18.2507 -18.2467 -18.2464 -18.2451
   -18.2435 -18.2418 -18.2317 -18.2289 -18.2284 -18.2172 -18.2118 -18.2055
   -18.2009 -18.1353 -18.1276 -18.1194 -18.1187 -18.1124 -18.1121 -18.1049
   -18.1039 -18.0949 -18.0893 -18.0713 -18.0584 -18.0539 -18.0428 -18.0377
    -9.3897  -9.3159  -9.2289  -9.1866  -9.1459  -9.1120  -9.0617  -9.0344
    -8.9989  -8.9800  -8.9302  -8.9072  -8.8640  -8.8423  -8.8291  -8.8050
    -8.7941  -8.7541  -8.7100  -8.6906  -8.6775  -8.6562  -8.5934  -8.5399
    -5.2903  -5.2817  -5.2753  -5.2336  -5.2231  -5.2199  -5.2131  -5.2018
    -5.1964  -5.1873  -5.1810  -5.1767  -5.1679  -5.1650  -5.1404  -5.0488
    -5.0372  -5.0354  -5.0315  -5.0244  -5.0219  -5.0156  -5.0115  -4.9959
    -4.1962  -3.9973  -3.9378  -3.7577  -3.5917  -3.4025  -3.3613  -3.1413
    -0.6919  -0.6621  -0.5734  -0.4878  -0.2852  -0.2095  -0.1749  -0.1291
    -0.0579  -0.0078   0.0635   0.1903   0.3218   0.4073   0.4649   0.5136
     0.5277   0.5625   0.5941   0.6304   0.6647   0.6687   0.6942   0.7246
     0.7840   0.8668   0.9012   0.9532   1.0090   1.0733   1.0958   1.1438
     1.1685   1.1920   1.2152   1.2511   1.2805   1.2984   1.3235   1.3508
     1.3776   1.4422   1.4538   1.4686   1.4989   1.5507   1.5748   1.5889
     1.6129   1.6493   1.6681   1.6794   1.7086   1.7485   1.7741   1.7765
     1.7998   1.8313   1.8524   1.8761   1.9091   1.9344   1.9694   2.0077
     2.0275   2.0701   2.0892   2.2406   2.3226   2.4211   2.5468   2.6437

          k = 0.3750-0.1250 0.3750 (132616 PWs)   bands (ev):

   -18.5229 -18.4669 -18.4433 -18.4162 -18.3797 -18.3546 -18.3451 -18.3397
   -18.3300 -18.3182 -18.3147 -18.3041 -18.3039 -18.2957 -18.2927 -18.2643
   -18.2638 -18.2615 -18.2594 -18.2527 -18.2507 -18.2467 -18.2464 -18.2451
   -18.2435 -18.2418 -18.2317 -18.2289 -18.2284 -18.2172 -18.2118 -18.2055
   -18.2009 -18.1353 -18.1276 -18.1194 -18.1187 -18.1124 -18.1121 -18.1049
   -18.1039 -18.0949 -18.0893 -18.0713 -18.0584 -18.0539 -18.0428 -18.0377
    -9.3923  -9.3078  -9.2300  -9.1947  -9.1491  -9.1154  -9.0463  -9.0297
    -9.0046  -8.9826  -8.9295  -8.9055  -8.8707  -8.8419  -8.8298  -8.8014
    -8.7957  -8.7521  -8.7098  -8.6930  -8.6772  -8.6557  -8.5919  -8.5408
    -5.2903  -5.2817  -5.2753  -5.2335  -5.2231  -5.2201  -5.2131  -5.2016
    -5.1965  -5.1876  -5.1807  -5.1767  -5.1678  -5.1648  -5.1405  -5.0487
    -5.0373  -5.0354  -5.0316  -5.0244  -5.0219  -5.0156  -5.0115  -4.9959
    -4.1997  -3.9885  -3.9382  -3.7621  -3.5980  -3.3968  -3.3588  -3.1439
    -0.6947  -0.6473  -0.5785  -0.4863  -0.2934  -0.2233  -0.1742  -0.1234
    -0.0549  -0.0075   0.0658   0.1799   0.3335   0.4098   0.4857   0.4936
     0.5230   0.5466   0.5902   0.6350   0.6648   0.6768   0.6895   0.7426
     0.7945   0.8584   0.9062   0.9529   1.0073   1.0612   1.0992   1.1548
     1.1668   1.1861   1.2099   1.2367   1.2939   1.3064   1.3283   1.3498
     1.3871   1.4103   1.4662   1.4749   1.5056   1.5415   1.5751   1.5884
     1.6086   1.6489   1.6544   1.6797   1.7268   1.7413   1.7518   1.7787
     1.8159   1.8327   1.8578   1.8659   1.9197   1.9500   1.9731   2.0050
     2.0305   2.0594   2.0915   2.2344   2.3154   2.4138   2.5269   2.6739

          k =-0.3750 0.1250 0.3750 (132616 PWs)   bands (ev):

   -18.5229 -18.4669 -18.4433 -18.4162 -18.3797 -18.3546 -18.3451 -18.3397
   -18.3300 -18.3182 -18.3147 -18.3041 -18.3039 -18.2957 -18.2927 -18.2643
   -18.2638 -18.2615 -18.2594 -18.2527 -18.2507 -18.2467 -18.2464 -18.2451
   -18.2435 -18.2418 -18.2317 -18.2289 -18.2284 -18.2172 -18.2118 -18.2055
   -18.2009 -18.1353 -18.1276 -18.1194 -18.1187 -18.1124 -18.1121 -18.1049
   -18.1039 -18.0949 -18.0893 -18.0713 -18.0584 -18.0539 -18.0428 -18.0377
    -9.3915  -9.3099  -9.2311  -9.1827  -9.1678  -9.0992  -9.0506  -9.0303
    -9.0076  -8.9849  -8.9286  -8.9042  -8.8685  -8.8433  -8.8280  -8.8048
    -8.7922  -8.7557  -8.7097  -8.6928  -8.6695  -8.6621  -8.5920  -8.5406
    -5.2902  -5.2817  -5.2754  -5.2336  -5.2232  -5.2200  -5.2131  -5.2018
    -5.1961  -5.1876  -5.1810  -5.1765  -5.1682  -5.1646  -5.1405  -5.0487
    -5.0376  -5.0349  -5.0319  -5.0242  -5.0219  -5.0158  -5.0114  -4.9960
    -4.1987  -3.9823  -3.9514  -3.7439  -3.6175  -3.3914  -3.3555  -3.1448
    -0.7055  -0.6473  -0.5768  -0.4734  -0.3278  -0.2361  -0.1719  -0.1087
    -0.0278   0.0452   0.0642   0.1970   0.2876   0.4056   0.4283   0.4982
     0.5285   0.5494   0.6021   0.6269   0.6458   0.6712   0.6976   0.7695
     0.8100   0.8579   0.8891   0.9520   1.0241   1.0596   1.0874   1.1381
     1.1746   1.2018   1.2222   1.2499   1.2766   1.3036   1.3242   1.3432
     1.3817   1.4294   1.4609   1.4794   1.5215   1.5487   1.5659   1.5863
     1.6020   1.6374   1.6555   1.6802   1.7011   1.7392   1.7512   1.7961
     1.8195   1.8337   1.8530   1.8898   1.9101   1.9426   1.9639   2.0044
     2.0344   2.0542   2.1198   2.2262   2.3046   2.4296   2.5305   2.6631

          k = 0.3750-0.3750 0.1250 (132616 PWs)   bands (ev):

   -18.5229 -18.4669 -18.4433 -18.4162 -18.3797 -18.3546 -18.3451 -18.3397
   -18.3300 -18.3182 -18.3147 -18.3041 -18.3039 -18.2957 -18.2927 -18.2644
   -18.2638 -18.2614 -18.2594 -18.2527 -18.2507 -18.2467 -18.2464 -18.2451
   -18.2435 -18.2418 -18.2317 -18.2289 -18.2284 -18.2172 -18.2118 -18.2055
   -18.2009 -18.1353 -18.1276 -18.1193 -18.1188 -18.1124 -18.1121 -18.1049
   -18.1039 -18.0949 -18.0893 -18.0713 -18.0584 -18.0539 -18.0428 -18.0377
    -9.3931  -9.2938  -9.2551  -9.1805  -9.1496  -9.1243  -9.0441  -9.0273
    -9.0052  -8.9705  -8.9274  -8.9059  -8.8913  -8.8361  -8.8230  -8.7980
    -8.7930  -8.7553  -8.7294  -8.6943  -8.6713  -8.6429  -8.5914  -8.5446
    -5.2903  -5.2818  -5.2752  -5.2339  -5.2232  -5.2200  -5.2132  -5.2014
    -5.1959  -5.1879  -5.1811  -5.1771  -5.1675  -5.1646  -5.1402  -5.0486
    -5.0377  -5.0351  -5.0307  -5.0252  -5.0214  -5.0151  -5.0123  -4.9961
    -4.1918  -3.9961  -3.9109  -3.7216  -3.6321  -3.4753  -3.3396  -3.1462
    -0.6430  -0.5617  -0.5156  -0.4798  -0.3452  -0.2550  -0.2240  -0.0984
    -0.0388  -0.0113   0.0494   0.1958   0.3007   0.4281   0.4569   0.4954
     0.5105   0.5533   0.5982   0.6131   0.6497   0.6831   0.7092   0.7378
     0.8024   0.8806   0.8995   0.9668   0.9847   0.9984   1.0603   1.1066
     1.1529   1.1960   1.2428   1.2557   1.2982   1.3183   1.3321   1.3753
     1.3942   1.4427   1.4539   1.4845   1.5079   1.5399   1.5760   1.6025
     1.6148   1.6379   1.6570   1.6905   1.7111   1.7294   1.7478   1.7755
     1.8051   1.8313   1.8598   1.8729   1.8843   1.9371   1.9770   1.9969
     2.0589   2.0868   2.1142   2.1644   2.3089   2.4194   2.5110   2.6463

          k =-0.3750-0.3750-0.1250 (132616 PWs)   bands (ev):

   -18.5229 -18.4669 -18.4433 -18.4162 -18.3797 -18.3546 -18.3451 -18.3397
   -18.3300 -18.3182 -18.3147 -18.3041 -18.3039 -18.2957 -18.2927 -18.2644
   -18.2638 -18.2614 -18.2594 -18.2527 -18.2507 -18.2467 -18.2464 -18.2451
   -18.2435 -18.2418 -18.2317 -18.2289 -18.2284 -18.2172 -18.2118 -18.2055
   -18.2009 -18.1353 -18.1276 -18.1193 -18.1188 -18.1124 -18.1121 -18.1049
   -18.1039 -18.0949 -18.0893 -18.0713 -18.0584 -18.0539 -18.0428 -18.0377
    -9.3900  -9.3115  -9.2309  -9.1825  -9.1686  -9.1003  -9.0582  -9.0323
    -9.0004  -8.9716  -8.9250  -8.9143  -8.8813  -8.8348  -8.8226  -8.8035
    -8.7900  -8.7571  -8.7284  -8.6921  -8.6722  -8.6439  -8.5929  -8.5434
    -5.2903  -5.2818  -5.2751  -5.2339  -5.2232  -5.2198  -5.2132  -5.2017
    -5.1959  -5.1876  -5.1812  -5.1770  -5.1676  -5.1648  -5.1402  -5.0487
    -5.0375  -5.0351  -5.0307  -5.0252  -5.0214  -5.0151  -5.0123  -4.9962
    -4.1844  -4.0257  -3.8796  -3.7291  -3.6373  -3.4690  -3.3427  -3.1457
    -0.6459  -0.5790  -0.5169  -0.4668  -0.3227  -0.2864  -0.1884  -0.1065
    -0.0409  -0.0197   0.0650   0.1921   0.2783   0.4250   0.4714   0.4842
     0.5385   0.5726   0.5854   0.5995   0.6526   0.6639   0.6894   0.7605
     0.8029   0.8621   0.9116   0.9637   0.9783   1.0240   1.0566   1.1287
     1.1466   1.1903   1.2184   1.2469   1.2990   1.3240   1.3486   1.3625
     1.3967   1.4271   1.4493   1.4884   1.5177   1.5608   1.5720   1.6064
     1.6238   1.6438   1.6495   1.6902   1.7070   1.7281   1.7527   1.7802
     1.7976   1.8226   1.8517   1.8740   1.8897   1.9368   1.9611   1.9961
     2.0605   2.0786   2.1420   2.1682   2.2835   2.4373   2.5460   2.6104

          k = 0.3750 0.3750-0.1250 (132616 PWs)   bands (ev):

   -18.5229 -18.4669 -18.4433 -18.4162 -18.3797 -18.3546 -18.3451 -18.3397
   -18.3300 -18.3182 -18.3147 -18.3041 -18.3039 -18.2957 -18.2927 -18.2644
   -18.2638 -18.2614 -18.2594 -18.2527 -18.2507 -18.2467 -18.2464 -18.2451
   -18.2435 -18.2418 -18.2317 -18.2289 -18.2284 -18.2172 -18.2118 -18.2055
   -18.2009 -18.1353 -18.1276 -18.1193 -18.1188 -18.1124 -18.1121 -18.1049
   -18.1039 -18.0949 -18.0893 -18.0713 -18.0584 -18.0539 -18.0428 -18.0377
    -9.3898  -9.3106  -9.2378  -9.1810  -9.1575  -9.1084  -9.0593  -9.0274
    -9.0039  -8.9698  -8.9267  -8.9066  -8.8924  -8.8301  -8.8243  -8.8014
    -8.7918  -8.7550  -8.7284  -8.6934  -8.6705  -8.6453  -8.5931  -8.5432
    -5.2902  -5.2818  -5.2752  -5.2339  -5.2233  -5.2200  -5.2132  -5.2014
    -5.1960  -5.1875  -5.1811  -5.1772  -5.1679  -5.1647  -5.1401  -5.0486
    -5.0378  -5.0347  -5.0313  -5.0250  -5.0213  -5.0153  -5.0122  -4.9961
    -4.1842  -4.0255  -3.8801  -3.7385  -3.6252  -3.4696  -3.3418  -3.1487
    -0.6459  -0.5743  -0.5158  -0.4610  -0.3277  -0.2969  -0.1989  -0.1000
    -0.0251  -0.0195   0.0588   0.1943   0.2968   0.4121   0.4638   0.4812
     0.5084   0.5609   0.5847   0.6171   0.6405   0.6904   0.7044   0.7515
     0.8262   0.8674   0.9243   0.9566   0.9760   1.0018   1.0354   1.1160
     1.1582   1.1867   1.2062   1.2463   1.3008   1.3295   1.3499   1.3709
     1.3945   1.4420   1.4708   1.4873   1.5120   1.5422   1.5758   1.6006
     1.6152   1.6380   1.6723   1.6844   1.7194   1.7428   1.7636   1.7845
     1.7943   1.8279   1.8426   1.8659   1.8907   1.9418   1.9656   1.9912
     2.0412   2.0846   2.1281   2.1811   2.2740   2.4400   2.5498   2.6005

          k =-0.3750 0.3750 0.1250 (132616 PWs)   bands (ev):

   -18.5229 -18.4669 -18.4433 -18.4162 -18.3797 -18.3546 -18.3451 -18.3397
   -18.3300 -18.3182 -18.3147 -18.3041 -18.3039 -18.2957 -18.2927 -18.2644
   -18.2638 -18.2614 -18.2594 -18.2527 -18.2507 -18.2467 -18.2464 -18.2451
   -18.2435 -18.2418 -18.2317 -18.2289 -18.2284 -18.2172 -18.2118 -18.2055
   -18.2009 -18.1353 -18.1276 -18.1193 -18.1188 -18.1124 -18.1121 -18.1049
   -18.1039 -18.0949 -18.0893 -18.0713 -18.0584 -18.0539 -18.0428 -18.0377
    -9.3926  -9.2955  -9.2531  -9.1905  -9.1462  -9.1084  -9.0504  -9.0338
    -9.0037  -8.9742  -8.9255  -8.9091  -8.8804  -8.8416  -8.8233  -8.7973
    -8.7907  -8.7591  -8.7284  -8.6936  -8.6698  -8.6444  -8.5915  -8.5445
    -5.2902  -5.2818  -5.2752  -5.2339  -5.2232  -5.2199  -5.2132  -5.2017
    -5.1956  -5.1880  -5.1812  -5.1769  -5.1679  -5.1644  -5.1402  -5.0486
    -5.0379  -5.0345  -5.0312  -5.0250  -5.0213  -5.0153  -5.0121  -4.9962
    -4.1909  -3.9964  -3.9091  -3.7329  -3.6224  -3.4767  -3.3388  -3.1460
    -0.6538  -0.5802  -0.4988  -0.4767  -0.3448  -0.2481  -0.2167  -0.1053
    -0.0358   0.0028   0.0429   0.2105   0.3009   0.4331   0.4462   0.4877
     0.5096   0.5505   0.5925   0.6126   0.6319   0.6783   0.7194   0.7389
     0.8032   0.8690   0.9180   0.9536   0.9990   1.0218   1.0502   1.1067
     1.1415   1.1814   1.2379   1.2518   1.2954   1.3053   1.3495   1.3730
     1.3845   1.4455   1.4590   1.4884   1.5231   1.5380   1.5855   1.6097
     1.6167   1.6411   1.6550   1.6838   1.6984   1.7303   1.7490   1.7835
     1.8149   1.8379   1.8598   1.8764   1.8868   1.9288   1.9562   1.9946
     2.0583   2.0851   2.1177   2.1779   2.3013   2.4260   2.5116   2.6394

          k =-0.3750-0.3750 0.3750 (132612 PWs)   bands (ev):

   -18.5229 -18.4669 -18.4433 -18.4162 -18.3797 -18.3546 -18.3451 -18.3397
   -18.3300 -18.3182 -18.3147 -18.3041 -18.3039 -18.2957 -18.2927 -18.2643
   -18.2638 -18.2615 -18.2594 -18.2527 -18.2507 -18.2467 -18.2464 -18.2451
   -18.2435 -18.2418 -18.2317 -18.2289 -18.2284 -18.2172 -18.2118 -18.2055
   -18.2009 -18.1353 -18.1276 -18.1193 -18.1188 -18.1124 -18.1121 -18.1049
   -18.1039 -18.0949 -18.0893 -18.0713 -18.0584 -18.0539 -18.0428 -18.0377
    -9.3805  -9.2997  -9.2357  -9.1900  -9.1578  -9.1252  -9.0873  -9.0346
    -9.0185  -8.9706  -8.9034  -8.8943  -8.8675  -8.8367  -8.8231  -8.8012
    -8.7834  -8.7480  -8.7137  -8.7005  -8.6748  -8.6615  -8.5961  -8.5437
    -5.2903  -5.2818  -5.2753  -5.2336  -5.2232  -5.2203  -5.2131  -5.2016
    -5.1964  -5.1877  -5.1808  -5.1771  -5.1673  -5.1648  -5.1402  -5.0484
    -5.0376  -5.0350  -5.0320  -5.0241  -5.0215  -5.0159  -5.0114  -4.9957
    -4.0653  -3.9247  -3.8442  -3.7367  -3.6266  -3.5864  -3.5110  -3.3340
    -0.4111  -0.3705  -0.3330  -0.2738  -0.2156  -0.1598  -0.0824  -0.0583
    -0.0061   0.0179   0.0758   0.2385   0.2916   0.3406   0.3719   0.4189
     0.4641   0.5036   0.5343   0.5583   0.5962   0.6103   0.6577   0.6859
     0.8577   0.8893   0.9228   0.9493   0.9674   1.0076   1.0346   1.0800
     1.1022   1.1278   1.1699   1.1731   1.1925   1.2229   1.2714   1.2850
     1.3343   1.4406   1.4699   1.4984   1.5194   1.5483   1.6043   1.6323
     1.6614   1.6848   1.7030   1.7380   1.7532   1.7755   1.7918   1.8041
     1.8104   1.8368   1.8415   1.8772   1.9037   1.9237   1.9412   1.9593
     1.9819   2.0371   2.0429   2.1000   2.1410   2.1617   2.2548   2.3969

          k =-0.3750 0.3750-0.3750 (132612 PWs)   bands (ev):

   -18.5229 -18.4669 -18.4433 -18.4162 -18.3797 -18.3546 -18.3451 -18.3397
   -18.3300 -18.3182 -18.3147 -18.3041 -18.3039 -18.2957 -18.2927 -18.2643
   -18.2638 -18.2615 -18.2594 -18.2527 -18.2507 -18.2467 -18.2464 -18.2452
   -18.2435 -18.2418 -18.2317 -18.2289 -18.2284 -18.2172 -18.2118 -18.2055
   -18.2009 -18.1353 -18.1276 -18.1193 -18.1188 -18.1124 -18.1121 -18.1049
   -18.1039 -18.0949 -18.0893 -18.0713 -18.0584 -18.0539 -18.0428 -18.0377
    -9.3839  -9.2848  -9.2396  -9.2040  -9.1587  -9.1327  -9.0588  -9.0475
    -9.0179  -8.9706  -8.9035  -8.8921  -8.8691  -8.8381  -8.8258  -8.8005
    -8.7813  -8.7492  -8.7131  -8.6997  -8.6805  -8.6572  -8.5943  -8.5449
    -5.2904  -5.2818  -5.2752  -5.2336  -5.2231  -5.2202  -5.2131  -5.2016
    -5.1965  -5.1881  -5.1806  -5.1770  -5.1670  -5.1646  -5.1404  -5.0485
    -5.0375  -5.0355  -5.0316  -5.0244  -5.0215  -5.0156  -5.0115  -4.9957
    -4.0786  -3.8817  -3.8415  -3.7705  -3.6527  -3.5752  -3.4930  -3.3356
    -0.4274  -0.3554  -0.3125  -0.2498  -0.2330  -0.1567  -0.0969  -0.0604
    -0.0391  -0.0083   0.0885   0.2203   0.3033   0.3533   0.3926   0.4371
     0.4779   0.4968   0.5527   0.5589   0.5948   0.6111   0.6573   0.6680
     0.8292   0.8791   0.9302   0.9631   0.9826   0.9987   1.0375   1.0795
     1.1107   1.1325   1.1495   1.1826   1.2167   1.2339   1.2555   1.2698
     1.3498   1.4284   1.4500   1.4781   1.5160   1.5775   1.5944   1.6243
     1.6530   1.6766   1.7111   1.7349   1.7486   1.7642   1.7765   1.7990
     1.8261   1.8502   1.8653   1.8691   1.8784   1.9317   1.9581   1.9784
     2.0116   2.0365   2.0597   2.0928   2.1199   2.1343   2.2321   2.4287

          k = 0.3750-0.3750-0.3750 (132612 PWs)   bands (ev):

   -18.5229 -18.4669 -18.4433 -18.4162 -18.3797 -18.3546 -18.3451 -18.3397
   -18.3300 -18.3182 -18.3147 -18.3041 -18.3039 -18.2957 -18.2927 -18.2643
   -18.2638 -18.2615 -18.2594 -18.2527 -18.2507 -18.2467 -18.2464 -18.2451
   -18.2435 -18.2418 -18.2317 -18.2289 -18.2284 -18.2172 -18.2118 -18.2055
   -18.2009 -18.1353 -18.1276 -18.1193 -18.1188 -18.1124 -18.1121 -18.1049
   -18.1039 -18.0949 -18.0893 -18.0713 -18.0584 -18.0539 -18.0428 -18.0377
    -9.3832  -9.2872  -9.2357  -9.2088  -9.1675  -9.1068  -9.0725  -9.0495
    -9.0165  -8.9741  -8.9048  -8.8911  -8.8553  -8.8469  -8.8263  -8.8028
    -8.7774  -8.7526  -8.7150  -8.6981  -8.6745  -8.6619  -8.5943  -8.5448
    -5.2902  -5.2818  -5.2753  -5.2337  -5.2231  -5.2202  -5.2131  -5.2019
    -5.1962  -5.1881  -5.1808  -5.1768  -5.1674  -5.1644  -5.1404  -5.0484
    -5.0378  -5.0349  -5.0319  -5.0241  -5.0215  -5.0158  -5.0114  -4.9958
    -4.0763  -3.8877  -3.8273  -3.7867  -3.6547  -3.5649  -3.4949  -3.3360
    -0.4518  -0.3655  -0.3091  -0.2464  -0.2026  -0.1632  -0.1175  -0.0834
    -0.0092   0.0384   0.1034   0.2282   0.3035   0.3550   0.3877   0.4106
     0.4574   0.4973   0.5249   0.5538   0.5924   0.6060   0.6573   0.6932
     0.8226   0.8970   0.9271   0.9530   0.9966   1.0051   1.0367   1.0742
     1.1065   1.1271   1.1576   1.1896   1.2020   1.2239   1.2519   1.2663
     1.3524   1.4264   1.4567   1.4913   1.5355   1.5592   1.5889   1.6377
     1.6613   1.6781   1.7023   1.7173   1.7470   1.7586   1.7875   1.8052
     1.8298   1.8498   1.8697   1.8875   1.8999   1.9164   1.9459   1.9672
     1.9925   2.0361   2.0635   2.0920   2.1216   2.1679   2.2161   2.4206

     highest occupied level (ev):     3.1733

!    total energy              =   -2256.31797369 Ry
     estimated scf accuracy    <          3.6E-11 Ry

     The total energy is the sum of the following terms:
     one-electron contribution =    -986.75133078 Ry
     hartree contribution      =     621.48366923 Ry
     xc contribution           =    -647.47097256 Ry
     ewald contribution        =   -1243.57933958 Ry

     convergence has been achieved in  15 iterations

     Forces acting on atoms (cartesian axes, Ry/au):

     atom    1 type  1   force =     0.00126643   -0.00141882    0.00212935
     atom    2 type  2   force =    -0.01527007    0.00312619   -0.00188645
     atom    3 type  3   force =     0.01133933    0.00092158   -0.00045777
     atom    4 type  3   force =     0.00161071    0.00116354   -0.01034787
     atom    5 type  3   force =     0.00333508    0.00233001    0.00454906
     atom    6 type  1   force =     0.00021911   -0.00116303   -0.00138859
     atom    7 type  2   force =     0.00923529    0.00216816    0.01528597
     atom    8 type  3   force =     0.01092916   -0.00956377   -0.00668528
     atom    9 type  3   force =     0.00177882   -0.00259850    0.00700691
     atom   10 type  3   force =    -0.00153863   -0.00411033   -0.00330741
     atom   11 type  1   force =     0.00009096    0.00012207   -0.00052406
     atom   12 type  2   force =     0.00416607   -0.00468787   -0.00369576
     atom   13 type  3   force =     0.00661025   -0.00084705    0.00327045
     atom   14 type  3   force =     0.00109506    0.00038891    0.00144836
     atom   15 type  3   force =    -0.00443474    0.00558979    0.00026681
     atom   16 type  1   force =     0.00171072   -0.00019015    0.00094617
     atom   17 type  2   force =    -0.01107612   -0.01632231   -0.00628061
     atom   18 type  3   force =    -0.01418259    0.00064321    0.00259608
     atom   19 type  3   force =     0.00668257    0.00775844    0.00446917
     atom   20 type  3   force =     0.00501473    0.00165669    0.00092108
     atom   21 type  1   force =    -0.00154051   -0.00743779    0.00765723
     atom   22 type  2   force =     0.00874133   -0.00205506    0.00415547
     atom   23 type  3   force =    -0.00711168   -0.00137865    0.00011063
     atom   24 type  3   force =    -0.00282716   -0.00330352   -0.00672859
     atom   25 type  3   force =    -0.00058347   -0.00291157    0.00129016
     atom   26 type  1   force =    -0.00499783   -0.00615347   -0.00461072
     atom   27 type  2   force =    -0.00539733   -0.00924182    0.00137860
     atom   28 type  3   force =    -0.01485751    0.00177075   -0.00121505
     atom   29 type  3   force =     0.00131314   -0.00542337    0.00358464
     atom   30 type  3   force =     0.00144259    0.00741179    0.00219785
     atom   31 type  1   force =     0.00105406    0.00408131    0.00549978
     atom   32 type  2   force =    -0.00219452    0.01359047   -0.00407597
     atom   33 type  3   force =    -0.00186949    0.00555859   -0.01392817
     atom   34 type  3   force =    -0.00975882    0.00092318   -0.00200387
     atom   35 type  3   force =     0.00136933    0.00476755   -0.00149347
     atom   36 type  1   force =     0.00029401    0.00258059   -0.00167521
     atom   37 type  2   force =     0.00556572    0.00295872    0.00197542
     atom   38 type  3   force =     0.00582089    0.01009349   -0.00092155
     atom   39 type  3   force =     0.00329412   -0.00376394    0.00524313
     atom   40 type  3   force =     0.00366098    0.00296598   -0.00475592

     Total force =     0.062699     Total SCF correction =     0.000027


     Computing stress (Cartesian axis) and pressure

          total   stress  (Ry/bohr**3)                   (kbar)     P=       -7.98
  -0.00005984   0.00000523   0.00000154           -8.80        0.77        0.23
   0.00000523  -0.00004374   0.00000137            0.77       -6.43        0.20
   0.00000154   0.00000137  -0.00005919            0.23        0.20       -8.71

 
     init_run     :     20.11s CPU     17.06s WALL (       1 calls)
     electrons    :    201.68s CPU    214.40s WALL (       1 calls)
     forces       :      8.77s CPU      3.89s WALL (       1 calls)
     stress       :     31.42s CPU     30.23s WALL (       1 calls)

     Called by init_run:
     wfcinit      :     12.15s CPU     14.02s WALL (       1 calls)
                                       14.02s GPU  (       1 calls)
     potinit      :      4.56s CPU      1.40s WALL (       1 calls)
     hinit0       :      2.83s CPU      0.98s WALL (       1 calls)

     Called by electrons:
     c_bands      :    121.18s CPU    172.59s WALL (      16 calls)
     sum_band     :     21.88s CPU     20.71s WALL (      16 calls)
                                       20.71s GPU  (      16 calls)
     v_of_rho     :     54.39s CPU     16.45s WALL (      16 calls)
     mix_rho      :      6.37s CPU      4.88s WALL (      16 calls)

     Called by c_bands:
     init_us_2    :      2.37s CPU      3.12s WALL (     280 calls)
                                        3.11s GPU  (     280 calls)
     cegterg      :     81.49s CPU    130.43s WALL (     128 calls)

     Called by *egterg:
     cdiaghg      :     14.00s CPU     26.57s WALL (     676 calls)
                                       26.53s GPU  (     676 calls)
     h_psi        :     55.19s CPU     75.62s WALL (     692 calls)
                                       75.18s GPU  (     692 calls)
     g_psi        :      0.00s CPU      0.37s WALL (     556 calls)
                                        0.36s GPU  (     556 calls)

     Called by h_psi:
     h_psi:calbec :      0.30s CPU     10.12s WALL (     692 calls)
                                       10.11s GPU  (     692 calls)
     vloc_psi     :     40.17s CPU     55.45s WALL (     692 calls)
                                       54.51s GPU  (     692 calls)
     add_vuspsi   :      0.35s CPU      9.97s WALL (     692 calls)
                                        9.96s GPU  (     692 calls)

     General routines
     calbec       :      0.30s CPU      0.40s WALL (     732 calls)
     fft          :     25.66s CPU      6.56s WALL (     185 calls)
                                        0.00s GPU  (       6 calls)
     ffts         :      2.63s CPU      0.68s WALL (      16 calls)
     fftw         :      0.61s CPU     64.04s WALL (   10714 calls)
                                       47.82s GPU  (   10714 calls)
 
     Parallel routines
 
     PWSCF        :   4m22.63s CPU   4m26.32s WALL

 
   This run was terminated on:  22:17:39  22Apr2021            

=------------------------------------------------------------------------------=
   JOB DONE.
=------------------------------------------------------------------------------=
