
     Program PWSCF v.6.7MaX starts on 22Apr2021 at 20:48:39 

     This program is part of the open-source Quantum ESPRESSO suite
     for quantum simulation of materials; please cite
         "P. Giannozzi et al., J. Phys.:Condens. Matter 21 395502 (2009);
         "P. Giannozzi et al., J. Phys.:Condens. Matter 29 465901 (2017);
         "P. Giannozzi et al., J. Chem. Phys. 152 154105 (2020);
          URL http://www.quantum-espresso.org", 
     in publications or presentations arising from this work. More details at
     http://www.quantum-espresso.org/quote

     Parallel version (MPI & OpenMP), running on      16 processor cores
     Number of MPI processes:                 4
     Threads/MPI process:                     4

     MPI processes distributed on     1 nodes
     K-points division:     npool     =       4
     Reading input from ESP_88.pwi
Warning: card &CELL ignored
Warning: card / ignored

     Current dimensions of program PWSCF are:
     Max number of different atomic species (ntypx) = 10
     Max number of k-points (npk) =  40000
     Max angular momentum in pseudopotentials (lmaxx) =  3
     Message from routine read_pp_mesh:
     mesh size missing, using the one in header
     Message from routine read_pp_mesh:
     mesh size missing, using the one in header
     Message from routine read_pp_mesh:
     mesh size missing, using the one in header

     Subspace diagonalization in iterative solution of the eigenvalue problem:
     a serial algorithm will be used

 
     G-vector sticks info
     --------------------
     sticks:   dense  smooth     PW     G-vecs:    dense   smooth      PW
     Sum       12589   12589   3289              1061107  1061107  140905
 
     Using Slab Decomposition
 


     bravais-lattice index     =            0
     lattice parameter (alat)  =      23.7585  a.u.
     unit-cell volume          =   13410.8736 (a.u.)^3
     number of atoms/cell      =           40
     number of atomic types    =            3
     number of electrons       =       352.00
     number of Kohn-Sham states=          176
     kinetic-energy cutoff     =      70.0000  Ry
     charge density cutoff     =     280.0000  Ry
     scf convergence threshold =      1.0E-10
     mixing beta               =       0.7000
     number of iterations used =            8  plain     mixing
     Exchange-correlation= PBESOL
                           (   1   4  10   8   0   0   0)

     GPU acceleration is ACTIVE.


     celldm(1)=  23.758500  celldm(2)=   0.000000  celldm(3)=   0.000000
     celldm(4)=   0.000000  celldm(5)=   0.000000  celldm(6)=   0.000000

     crystal axes: (cart. coord. in units of alat)
               a(1) = (   1.000000   0.000000   0.000000 )  
               a(2) = (   0.000000   1.000000   0.000000 )  
               a(3) = (   0.000000   0.000000   1.000000 )  

     reciprocal axes: (cart. coord. in units 2 pi/alat)
               b(1) = (  1.000000  0.000000  0.000000 )  
               b(2) = (  0.000000  1.000000  0.000000 )  
               b(3) = (  0.000000  0.000000  1.000000 )  


     PseudoPot. # 1 for Cs read from file:
     /m100/home/userexternal/lmonacel/espresso/pseudo/Cs-nc-pbesol.upf
     MD5 check sum: 9d2f2206a14dc5b3b3f3fbfae186bed4
     Pseudo is Norm-conserving + core correction, Zval =  9.0
     Generated using ONCVPSP code by D. R. Hamann
     Using radial grid of 2384 points,  8 beta functions with: 
                l(1) =   0
                l(2) =   0
                l(3) =   1
                l(4) =   1
                l(5) =   2
                l(6) =   2
                l(7) =   3
                l(8) =   3

     PseudoPot. # 2 for Sn read from file:
     /m100/home/userexternal/lmonacel/espresso/pseudo/Sn-nc-pbesol.upf
     MD5 check sum: c2995d571af40102bfea7461443d92cf
     Pseudo is Norm-conserving + core correction, Zval = 14.0
     Generated using ONCVPSP code by D. R. Hamann
     Using radial grid of 1628 points,  6 beta functions with: 
                l(1) =   0
                l(2) =   0
                l(3) =   1
                l(4) =   1
                l(5) =   2
                l(6) =   2

     PseudoPot. # 3 for I  read from file:
     /m100/home/userexternal/lmonacel/espresso/pseudo/I-nc-pbesol.upf
     MD5 check sum: 80ed5ceb2eb9c553cfb6760a299d9c5b
     Pseudo is Norm-conserving + core correction, Zval =  7.0
     Generated using ONCVPSP code by D. R. Hamann
     Using radial grid of 1182 points,  6 beta functions with: 
                l(1) =   0
                l(2) =   0
                l(3) =   1
                l(4) =   1
                l(5) =   2
                l(6) =   2

     atomic species   valence    mass     pseudopotential
        Cs             9.00   132.90545     Cs( 1.00)
        Sn            14.00   118.71000     Sn( 1.00)
        I              7.00   126.90447     I ( 1.00)

     No symmetry found



   Cartesian axes

     site n.     atom                  positions (alat units)
         1           Cs  tau(   1) = (   0.2329135   0.2492417   0.2648698  )
         2           Sn  tau(   2) = (  -0.0172515   0.0012977   0.0066044  )
         3           I   tau(   3) = (   0.2558048  -0.0162414  -0.0136543  )
         4           I   tau(   4) = (   0.0001913  -0.0103376   0.2665325  )
         5           I   tau(   5) = (   0.0173309   0.2607513   0.0202519  )
         6           Cs  tau(   6) = (   0.2372304   0.2364697   0.7130935  )
         7           Sn  tau(   7) = (   0.0087154   0.0221950   0.5007344  )
         8           I   tau(   8) = (   0.2364479  -0.0212268   0.5197610  )
         9           I   tau(   9) = (  -0.0106605   0.0455785   0.7570166  )
        10           I   tau(  10) = (   0.0791065   0.2683649   0.4857993  )
        11           Cs  tau(  11) = (   0.2769299   0.7175454   0.2162380  )
        12           Sn  tau(  12) = (  -0.0199860   0.5108509  -0.0057526  )
        13           I   tau(  13) = (   0.2475445   0.4952313   0.0002763  )
        14           I   tau(  14) = (   0.0288944   0.5596697   0.2483069  )
        15           I   tau(  15) = (   0.0250350   0.7814354  -0.0023724  )
        16           Cs  tau(  16) = (   0.2537404   0.7356011   0.7166982  )
        17           Sn  tau(  17) = (   0.0014281   0.5213825   0.5023399  )
        18           I   tau(  18) = (   0.2530933   0.5470975   0.5206842  )
        19           I   tau(  19) = (  -0.0410009   0.5053963   0.7507571  )
        20           I   tau(  20) = (  -0.0666258   0.7522097   0.5235277  )
        21           Cs  tau(  21) = (   0.7517765   0.2527151   0.2656946  )
        22           Sn  tau(  22) = (   0.4904498  -0.0244609   0.0054637  )
        23           I   tau(  23) = (   0.7462959   0.0417178   0.0246139  )
        24           I   tau(  24) = (   0.4783645   0.0032672   0.2554426  )
        25           I   tau(  25) = (   0.4885744   0.2323737  -0.0032473  )
        26           Cs  tau(  26) = (   0.7688117   0.2373763   0.7494530  )
        27           Sn  tau(  27) = (   0.4962142  -0.0082259   0.5032052  )
        28           I   tau(  28) = (   0.7550314   0.0547313   0.4943871  )
        29           I   tau(  29) = (   0.4872314  -0.0155070   0.7496142  )
        30           I   tau(  30) = (   0.4961102   0.2516635   0.4747893  )
        31           Cs  tau(  31) = (   0.7618460   0.7204078   0.2688994  )
        32           Sn  tau(  32) = (   0.4755766   0.4762859  -0.0056741  )
        33           I   tau(  33) = (   0.7357631   0.4501496  -0.0127165  )
        34           I   tau(  34) = (   0.4949135   0.4738452   0.2509122  )
        35           I   tau(  35) = (   0.5416412   0.7326552   0.0103974  )
        36           Cs  tau(  36) = (   0.7633433   0.7714772   0.7336095  )
        37           Sn  tau(  37) = (   0.4909805   0.4971701   0.4900126  )
        38           I   tau(  38) = (   0.7539505   0.4488067   0.5132564  )
        39           I   tau(  39) = (   0.5036269   0.4986904   0.7526621  )
        40           I   tau(  40) = (   0.5136435   0.7458658   0.4906928  )

     number of k points=    32
                       cart. coord. in units 2pi/alat
        k(    1) = (   0.1250000   0.1250000   0.1250000), wk =   0.0625000
        k(    2) = (   0.1250000   0.1250000   0.3750000), wk =   0.0625000
        k(    3) = (   0.1250000   0.3750000   0.3750000), wk =   0.0625000
        k(    4) = (   0.3750000   0.3750000   0.3750000), wk =   0.0625000
        k(    5) = (  -0.1250000  -0.1250000   0.1250000), wk =   0.0625000
        k(    6) = (  -0.1250000   0.1250000  -0.1250000), wk =   0.0625000
        k(    7) = (   0.1250000  -0.1250000  -0.1250000), wk =   0.0625000
        k(    8) = (  -0.1250000  -0.1250000   0.3750000), wk =   0.0625000
        k(    9) = (  -0.1250000   0.1250000  -0.3750000), wk =   0.0625000
        k(   10) = (   0.1250000  -0.1250000  -0.3750000), wk =   0.0625000
        k(   11) = (   0.3750000  -0.1250000   0.1250000), wk =   0.0625000
        k(   12) = (  -0.3750000  -0.1250000  -0.1250000), wk =   0.0625000
        k(   13) = (   0.3750000   0.1250000  -0.1250000), wk =   0.0625000
        k(   14) = (  -0.3750000   0.1250000   0.1250000), wk =   0.0625000
        k(   15) = (  -0.1250000   0.3750000   0.1250000), wk =   0.0625000
        k(   16) = (  -0.1250000  -0.3750000  -0.1250000), wk =   0.0625000
        k(   17) = (   0.1250000   0.3750000  -0.1250000), wk =   0.0625000
        k(   18) = (   0.1250000  -0.3750000   0.1250000), wk =   0.0625000
        k(   19) = (  -0.1250000  -0.3750000   0.3750000), wk =   0.0625000
        k(   20) = (  -0.1250000   0.3750000  -0.3750000), wk =   0.0625000
        k(   21) = (   0.1250000  -0.3750000  -0.3750000), wk =   0.0625000
        k(   22) = (   0.3750000   0.1250000  -0.3750000), wk =   0.0625000
        k(   23) = (  -0.3750000  -0.1250000  -0.3750000), wk =   0.0625000
        k(   24) = (   0.3750000  -0.1250000   0.3750000), wk =   0.0625000
        k(   25) = (  -0.3750000   0.1250000   0.3750000), wk =   0.0625000
        k(   26) = (   0.3750000  -0.3750000   0.1250000), wk =   0.0625000
        k(   27) = (  -0.3750000  -0.3750000  -0.1250000), wk =   0.0625000
        k(   28) = (   0.3750000   0.3750000  -0.1250000), wk =   0.0625000
        k(   29) = (  -0.3750000   0.3750000   0.1250000), wk =   0.0625000
        k(   30) = (  -0.3750000  -0.3750000   0.3750000), wk =   0.0625000
        k(   31) = (  -0.3750000   0.3750000  -0.3750000), wk =   0.0625000
        k(   32) = (   0.3750000  -0.3750000  -0.3750000), wk =   0.0625000

     Dense  grid:  1061107 G-vectors     FFT dimensions: ( 128, 128, 128)

     Estimated max dynamical RAM per process >       6.82 GB

     Estimated total dynamical RAM >      27.27 GB

     Initial potential from superposition of free atoms

     starting charge  351.69472, renormalised to  352.00000
     Starting wfcs are  208 randomized atomic wfcs

     total cpu time spent up to now is       17.9 secs

     Self-consistent Calculation

     iteration #  1     ecut=    70.00 Ry     beta= 0.70
     Davidson diagonalization with overlap
     ethr =  1.00E-02,  avg # of iterations =  2.0

     Threshold (ethr) on eigenvalues was too large:
     Diagonalizing with lowered threshold

     Davidson diagonalization with overlap
     ethr =  2.33E-04,  avg # of iterations =  4.0

     total cpu time spent up to now is       39.0 secs

     total energy              =   -2255.94673168 Ry
     estimated scf accuracy    <       0.72239772 Ry

     iteration #  2     ecut=    70.00 Ry     beta= 0.70
     Davidson diagonalization with overlap
     ethr =  2.05E-04,  avg # of iterations =  3.4

     total cpu time spent up to now is       52.2 secs

     total energy              =   -2256.14191510 Ry
     estimated scf accuracy    <       0.44727725 Ry

     iteration #  3     ecut=    70.00 Ry     beta= 0.70
     Davidson diagonalization with overlap
     ethr =  1.27E-04,  avg # of iterations =  3.0

     total cpu time spent up to now is       63.9 secs

     total energy              =   -2256.23288102 Ry
     estimated scf accuracy    <       0.05913671 Ry

     iteration #  4     ecut=    70.00 Ry     beta= 0.70
     Davidson diagonalization with overlap
     ethr =  1.68E-05,  avg # of iterations =  3.7

     total cpu time spent up to now is       76.2 secs

     total energy              =   -2256.24815569 Ry
     estimated scf accuracy    <       0.00325603 Ry

     iteration #  5     ecut=    70.00 Ry     beta= 0.70
     Davidson diagonalization with overlap
     ethr =  9.25E-07,  avg # of iterations =  4.8

     total cpu time spent up to now is       90.1 secs

     total energy              =   -2256.24907072 Ry
     estimated scf accuracy    <       0.00187825 Ry

     iteration #  6     ecut=    70.00 Ry     beta= 0.70
     Davidson diagonalization with overlap
     ethr =  5.34E-07,  avg # of iterations =  2.8

     total cpu time spent up to now is      102.1 secs

     total energy              =   -2256.24932745 Ry
     estimated scf accuracy    <       0.00028745 Ry

     iteration #  7     ecut=    70.00 Ry     beta= 0.70
     Davidson diagonalization with overlap
     ethr =  8.17E-08,  avg # of iterations =  4.3

     total cpu time spent up to now is      115.6 secs

     total energy              =   -2256.24940724 Ry
     estimated scf accuracy    <       0.00003659 Ry

     iteration #  8     ecut=    70.00 Ry     beta= 0.70
     Davidson diagonalization with overlap
     ethr =  1.04E-08,  avg # of iterations =  4.0

     total cpu time spent up to now is      129.0 secs

     total energy              =   -2256.24941771 Ry
     estimated scf accuracy    <       0.00000926 Ry

     iteration #  9     ecut=    70.00 Ry     beta= 0.70
     Davidson diagonalization with overlap
     ethr =  2.63E-09,  avg # of iterations =  3.3

     total cpu time spent up to now is      141.8 secs

     total energy              =   -2256.24942010 Ry
     estimated scf accuracy    <       0.00000104 Ry

     iteration # 10     ecut=    70.00 Ry     beta= 0.70
     Davidson diagonalization with overlap
     ethr =  2.96E-10,  avg # of iterations =  5.0

     total cpu time spent up to now is      156.7 secs

     total energy              =   -2256.24942060 Ry
     estimated scf accuracy    <       0.00000034 Ry

     iteration # 11     ecut=    70.00 Ry     beta= 0.70
     Davidson diagonalization with overlap
     ethr =  9.62E-11,  avg # of iterations =  3.0

     total cpu time spent up to now is      170.1 secs

     total energy              =   -2256.24942068 Ry
     estimated scf accuracy    <       0.00000008 Ry

     iteration # 12     ecut=    70.00 Ry     beta= 0.70
     Davidson diagonalization with overlap
     ethr =  2.37E-11,  avg # of iterations =  5.3

     total cpu time spent up to now is      185.2 secs

     total energy              =   -2256.24942073 Ry
     estimated scf accuracy    <       0.00000001 Ry

     iteration # 13     ecut=    70.00 Ry     beta= 0.70
     Davidson diagonalization with overlap
     ethr =  3.73E-12,  avg # of iterations =  5.5

     total cpu time spent up to now is      200.4 secs

     total energy              =   -2256.24942073 Ry
     estimated scf accuracy    <          3.2E-09 Ry

     iteration # 14     ecut=    70.00 Ry     beta= 0.70
     Davidson diagonalization with overlap
     ethr =  9.01E-13,  avg # of iterations =  4.2

     total cpu time spent up to now is      214.0 secs

     total energy              =   -2256.24942073 Ry
     estimated scf accuracy    <          4.2E-10 Ry

     iteration # 15     ecut=    70.00 Ry     beta= 0.70
     Davidson diagonalization with overlap
     ethr =  1.18E-13,  avg # of iterations =  5.5

     total cpu time spent up to now is      230.5 secs

     total energy              =   -2256.24942073 Ry
     estimated scf accuracy    <          1.7E-10 Ry

     iteration # 16     ecut=    70.00 Ry     beta= 0.70
     Davidson diagonalization with overlap
     ethr =  1.00E-13,  avg # of iterations =  2.1

     total cpu time spent up to now is      241.8 secs

     End of self-consistent calculation

          k = 0.1250 0.1250 0.1250 (132670 PWs)   bands (ev):

   -18.5471 -18.4630 -18.4601 -18.4532 -18.4482 -18.4410 -18.4366 -18.4022
   -18.3991 -18.3940 -18.3878 -18.3844 -18.3840 -18.3806 -18.3744 -18.3718
   -18.3664 -18.3619 -18.3604 -18.3546 -18.3468 -18.3442 -18.3369 -18.3313
   -18.3245 -18.3236 -18.3193 -18.3091 -18.3027 -18.2884 -18.2219 -18.1842
   -18.1777 -18.1681 -18.1639 -18.1538 -18.1437 -18.0697 -18.0623 -18.0620
   -18.0536 -18.0507 -18.0454 -18.0424 -18.0423 -18.0377 -18.0368 -18.0275
    -9.4942  -9.3811  -9.3241  -9.2758  -9.2208  -9.1865  -9.1102  -9.0830
    -9.0491  -8.9799  -8.9492  -8.9263  -8.9072  -8.8697  -8.8040  -8.7605
    -8.7335  -8.7049  -8.6619  -8.6367  -8.5929  -8.5596  -8.5135  -8.4216
    -5.3232  -5.3212  -5.3081  -5.2386  -5.2216  -5.2148  -5.2097  -5.1920
    -5.1859  -5.1737  -5.1296  -5.1185  -5.1110  -5.1068  -5.1030  -5.0230
    -5.0165  -4.9894  -4.9727  -4.9662  -4.9399  -4.8710  -4.8597  -4.8410
    -4.4102  -3.9601  -3.9347  -3.8412  -3.4270  -3.3716  -3.3110  -2.7838
    -0.8230  -0.6829  -0.6433  -0.5938  -0.5417  -0.4941  -0.4595  -0.4159
    -0.3375  -0.2875  -0.1833  -0.1121   0.3970   0.4489   0.4929   0.5630
     0.6133   0.6634   0.6803   0.7235   0.7795   0.8298   0.9181   0.9503
     0.9744   1.0061   1.0307   1.0731   1.0794   1.1190   1.1508   1.1766
     1.1917   1.2122   1.2366   1.2478   1.2896   1.3041   1.3221   1.3886
     1.4045   1.4119   1.4295   1.4592   1.4790   1.5117   1.5248   1.5456
     1.5937   1.6040   1.6178   1.6637   1.6896   1.7045   1.7307   1.7663
     1.7904   1.8204   1.8882   1.9194   1.9523   2.0018   2.0899   2.1496
     2.1696   2.2170   2.2915   2.3690   2.5714   2.6524   2.8268   3.1299

          k = 0.1250 0.1250 0.3750 (132608 PWs)   bands (ev):

   -18.5471 -18.4630 -18.4601 -18.4532 -18.4482 -18.4410 -18.4366 -18.4022
   -18.3991 -18.3940 -18.3878 -18.3844 -18.3840 -18.3806 -18.3744 -18.3718
   -18.3664 -18.3619 -18.3604 -18.3546 -18.3468 -18.3442 -18.3369 -18.3313
   -18.3245 -18.3236 -18.3193 -18.3091 -18.3027 -18.2884 -18.2219 -18.1842
   -18.1777 -18.1681 -18.1639 -18.1538 -18.1437 -18.0697 -18.0623 -18.0620
   -18.0536 -18.0507 -18.0454 -18.0424 -18.0423 -18.0377 -18.0368 -18.0275
    -9.4878  -9.3739  -9.3337  -9.2816  -9.2163  -9.1921  -9.1197  -9.0768
    -9.0482  -8.9826  -8.9518  -8.9192  -8.9151  -8.8750  -8.7993  -8.7619
    -8.7198  -8.6971  -8.6501  -8.6407  -8.5986  -8.5647  -8.5187  -8.4218
    -5.3230  -5.3212  -5.3069  -5.2390  -5.2218  -5.2156  -5.2097  -5.1919
    -5.1858  -5.1733  -5.1293  -5.1180  -5.1112  -5.1069  -5.1037  -5.0230
    -5.0164  -4.9894  -4.9725  -4.9656  -4.9390  -4.8710  -4.8612  -4.8416
    -4.2927  -4.0408  -3.8467  -3.7940  -3.5388  -3.4839  -3.2927  -2.9942
    -0.7966  -0.6292  -0.6003  -0.5005  -0.4745  -0.3956  -0.3131  -0.2328
    -0.0999  -0.0460  -0.0127   0.0948   0.3871   0.4049   0.4481   0.4911
     0.5318   0.5865   0.6151   0.6689   0.6793   0.7112   0.7754   0.8056
     0.8691   0.8987   0.9596   0.9728   1.0471   1.0676   1.0957   1.1427
     1.1693   1.1876   1.2317   1.2609   1.2939   1.3139   1.3248   1.3669
     1.3945   1.4306   1.4555   1.4749   1.5085   1.5372   1.5516   1.5658
     1.5851   1.6078   1.6381   1.6584   1.6823   1.6999   1.7360   1.7734
     1.8162   1.8426   1.8708   1.8893   1.9201   1.9735   2.0055   2.0691
     2.0948   2.1561   2.2249   2.3365   2.4766   2.5668   2.5998   2.8910

          k = 0.1250 0.3750 0.3750 (132616 PWs)   bands (ev):

   -18.5471 -18.4630 -18.4601 -18.4532 -18.4482 -18.4410 -18.4366 -18.4022
   -18.3991 -18.3940 -18.3878 -18.3844 -18.3840 -18.3806 -18.3744 -18.3718
   -18.3664 -18.3619 -18.3604 -18.3546 -18.3468 -18.3442 -18.3369 -18.3313
   -18.3245 -18.3236 -18.3193 -18.3091 -18.3027 -18.2884 -18.2219 -18.1842
   -18.1777 -18.1681 -18.1639 -18.1538 -18.1437 -18.0697 -18.0623 -18.0620
   -18.0536 -18.0507 -18.0454 -18.0424 -18.0423 -18.0377 -18.0368 -18.0275
    -9.4648  -9.4110  -9.3264  -9.2817  -9.2153  -9.1697  -9.1269  -9.0937
    -9.0519  -8.9796  -8.9499  -8.9226  -8.9128  -8.8726  -8.7962  -8.7561
    -8.7308  -8.6965  -8.6613  -8.6216  -8.5954  -8.5620  -8.5185  -8.4290
    -5.3230  -5.3212  -5.3070  -5.2390  -5.2222  -5.2156  -5.2098  -5.1924
    -5.1854  -5.1739  -5.1292  -5.1172  -5.1114  -5.1068  -5.1033  -5.0232
    -5.0166  -4.9896  -4.9725  -4.9655  -4.9391  -4.8712  -4.8605  -4.8417
    -4.1767  -4.0015  -3.9125  -3.7104  -3.6680  -3.4625  -3.3657  -3.1685
    -0.6618  -0.6033  -0.5795  -0.4243  -0.2923  -0.2352  -0.1758  -0.1294
    -0.0673   0.0644   0.1092   0.1736   0.2178   0.3971   0.4243   0.4771
     0.4956   0.5620   0.5833   0.6172   0.6796   0.7021   0.7382   0.7648
     0.8225   0.8778   0.9026   0.9442   0.9823   1.0311   1.0518   1.0748
     1.1175   1.1492   1.1869   1.2163   1.2550   1.2877   1.2972   1.3179
     1.3522   1.3952   1.4403   1.4709   1.4999   1.5340   1.5457   1.5636
     1.5991   1.6254   1.6494   1.6841   1.7249   1.7328   1.7569   1.8120
     1.8292   1.8481   1.8824   1.9040   1.9256   1.9487   2.0048   2.0406
     2.0746   2.1293   2.1436   2.2868   2.3361   2.3609   2.5102   2.6534

          k = 0.3750 0.3750 0.3750 (132612 PWs)   bands (ev):

   -18.5471 -18.4630 -18.4601 -18.4532 -18.4482 -18.4410 -18.4366 -18.4022
   -18.3991 -18.3940 -18.3877 -18.3844 -18.3840 -18.3806 -18.3744 -18.3718
   -18.3664 -18.3619 -18.3604 -18.3546 -18.3468 -18.3442 -18.3369 -18.3313
   -18.3245 -18.3236 -18.3193 -18.3091 -18.3027 -18.2884 -18.2219 -18.1842
   -18.1777 -18.1681 -18.1639 -18.1538 -18.1437 -18.0697 -18.0623 -18.0620
   -18.0536 -18.0507 -18.0454 -18.0424 -18.0423 -18.0377 -18.0368 -18.0275
    -9.4586  -9.4071  -9.3257  -9.2946  -9.2105  -9.1733  -9.1262  -9.0939
    -9.0619  -8.9778  -8.9527  -8.9365  -8.9058  -8.8634  -8.7933  -8.7508
    -8.7311  -8.6976  -8.6605  -8.6200  -8.5911  -8.5623  -8.5126  -8.4391
    -5.3230  -5.3213  -5.3070  -5.2393  -5.2224  -5.2153  -5.2100  -5.1923
    -5.1852  -5.1738  -5.1292  -5.1172  -5.1114  -5.1065  -5.1034  -5.0230
    -5.0167  -4.9900  -4.9720  -4.9652  -4.9394  -4.8709  -4.8608  -4.8417
    -4.0761  -3.9120  -3.8456  -3.7949  -3.5993  -3.5798  -3.5200  -3.3224
    -0.4818  -0.3819  -0.3414  -0.2459  -0.2241  -0.1919  -0.1548  -0.0894
    -0.0001   0.0469   0.1077   0.1863   0.2455   0.3584   0.3868   0.4151
     0.4632   0.4892   0.5651   0.5944   0.6375   0.6662   0.6861   0.7201
     0.8277   0.8792   0.9012   0.9379   0.9708   0.9863   1.0233   1.0496
     1.0644   1.0979   1.1308   1.1694   1.1939   1.2290   1.2650   1.2805
     1.3406   1.3890   1.4300   1.4437   1.4859   1.5136   1.5429   1.5808
     1.5947   1.6332   1.6621   1.6984   1.7180   1.7486   1.7747   1.8108
     1.8208   1.8446   1.8758   1.9110   1.9237   1.9361   1.9926   2.0296
     2.0806   2.0914   2.1401   2.1677   2.2048   2.2850   2.3661   2.4196

          k =-0.1250-0.1250 0.1250 (132670 PWs)   bands (ev):

   -18.5471 -18.4630 -18.4601 -18.4532 -18.4482 -18.4410 -18.4366 -18.4022
   -18.3991 -18.3940 -18.3878 -18.3844 -18.3840 -18.3806 -18.3744 -18.3718
   -18.3664 -18.3619 -18.3604 -18.3546 -18.3468 -18.3442 -18.3369 -18.3313
   -18.3245 -18.3236 -18.3193 -18.3091 -18.3027 -18.2884 -18.2219 -18.1842
   -18.1777 -18.1681 -18.1639 -18.1538 -18.1437 -18.0697 -18.0623 -18.0620
   -18.0536 -18.0507 -18.0454 -18.0424 -18.0423 -18.0377 -18.0368 -18.0275
    -9.4941  -9.3812  -9.3233  -9.2781  -9.2200  -9.1855  -9.1062  -9.0860
    -9.0495  -8.9774  -8.9531  -8.9344  -8.9034  -8.8645  -8.8011  -8.7531
    -8.7448  -8.7051  -8.6639  -8.6337  -8.5918  -8.5606  -8.5135  -8.4216
    -5.3232  -5.3212  -5.3082  -5.2387  -5.2216  -5.2148  -5.2097  -5.1920
    -5.1859  -5.1735  -5.1300  -5.1179  -5.1107  -5.1067  -5.1032  -5.0231
    -5.0165  -4.9895  -4.9727  -4.9662  -4.9399  -4.8710  -4.8597  -4.8409
    -4.4101  -3.9584  -3.9392  -3.8369  -3.4354  -3.3666  -3.3099  -2.7825
    -0.8274  -0.7032  -0.6434  -0.5846  -0.5167  -0.4869  -0.4751  -0.4200
    -0.3369  -0.2787  -0.1828  -0.1148   0.3997   0.4412   0.4969   0.5520
     0.6113   0.6654   0.7013   0.7059   0.7785   0.8530   0.8960   0.9437
     0.9748   1.0232   1.0365   1.0695   1.0930   1.1089   1.1214   1.1505
     1.2030   1.2148   1.2520   1.2567   1.2913   1.3171   1.3374   1.3679
     1.3854   1.3950   1.4427   1.4558   1.4786   1.5187   1.5233   1.5623
     1.6030   1.6119   1.6337   1.6546   1.6939   1.7015   1.7264   1.7658
     1.7915   1.8045   1.8628   1.9239   1.9508   2.0117   2.1072   2.1214
     2.1757   2.2255   2.2955   2.3707   2.5836   2.6326   2.8313   3.1300

          k =-0.1250 0.1250-0.1250 (132670 PWs)   bands (ev):

   -18.5471 -18.4630 -18.4601 -18.4532 -18.4482 -18.4410 -18.4366 -18.4022
   -18.3991 -18.3940 -18.3878 -18.3844 -18.3840 -18.3806 -18.3744 -18.3718
   -18.3664 -18.3619 -18.3604 -18.3546 -18.3468 -18.3442 -18.3369 -18.3313
   -18.3245 -18.3236 -18.3193 -18.3091 -18.3027 -18.2884 -18.2219 -18.1842
   -18.1777 -18.1681 -18.1639 -18.1538 -18.1437 -18.0697 -18.0623 -18.0620
   -18.0536 -18.0507 -18.0454 -18.0424 -18.0423 -18.0377 -18.0368 -18.0275
    -9.4943  -9.3803  -9.3241  -9.2771  -9.2217  -9.1849  -9.1092  -9.0869
    -9.0443  -8.9830  -8.9491  -8.9255  -8.9104  -8.8648  -8.8032  -8.7567
    -8.7410  -8.7043  -8.6650  -8.6326  -8.5931  -8.5589  -8.5143  -8.4216
    -5.3232  -5.3213  -5.3081  -5.2386  -5.2216  -5.2148  -5.2098  -5.1920
    -5.1859  -5.1735  -5.1301  -5.1179  -5.1108  -5.1068  -5.1032  -5.0230
    -5.0165  -4.9894  -4.9726  -4.9663  -4.9399  -4.8709  -4.8597  -4.8410
    -4.4099  -3.9586  -3.9378  -3.8390  -3.4327  -3.3733  -3.3048  -2.7826
    -0.8287  -0.6941  -0.6462  -0.5939  -0.5321  -0.4969  -0.4455  -0.4189
    -0.3466  -0.2763  -0.1953  -0.0853   0.3917   0.4473   0.4966   0.5546
     0.6164   0.6505   0.6962   0.7237   0.7728   0.8427   0.8991   0.9237
     0.9739   1.0002   1.0188   1.0684   1.1105   1.1254   1.1377   1.1896
     1.1967   1.2265   1.2506   1.2622   1.2855   1.2996   1.3280   1.3562
     1.3680   1.4184   1.4269   1.4677   1.4909   1.5104   1.5312   1.5621
     1.5925   1.6072   1.6177   1.6555   1.6852   1.6955   1.7256   1.7704
     1.7932   1.8142   1.8769   1.9247   1.9636   2.0273   2.0920   2.1397
     2.1632   2.2208   2.2961   2.3715   2.5880   2.6317   2.8183   3.1311

          k = 0.1250-0.1250-0.1250 (132670 PWs)   bands (ev):

   -18.5471 -18.4630 -18.4601 -18.4532 -18.4482 -18.4410 -18.4366 -18.4022
   -18.3991 -18.3940 -18.3878 -18.3844 -18.3840 -18.3806 -18.3744 -18.3718
   -18.3664 -18.3619 -18.3604 -18.3546 -18.3468 -18.3442 -18.3369 -18.3313
   -18.3245 -18.3236 -18.3193 -18.3091 -18.3027 -18.2884 -18.2219 -18.1842
   -18.1777 -18.1681 -18.1639 -18.1538 -18.1437 -18.0697 -18.0623 -18.0620
   -18.0536 -18.0507 -18.0454 -18.0424 -18.0423 -18.0377 -18.0368 -18.0275
    -9.4943  -9.3801  -9.3255  -9.2761  -9.2205  -9.1865  -9.1083  -9.0819
    -9.0509  -8.9789  -8.9509  -8.9324  -8.9044  -8.8667  -8.8012  -8.7584
    -8.7377  -8.7084  -8.6594  -8.6362  -8.5926  -8.5600  -8.5135  -8.4216
    -5.3232  -5.3212  -5.3082  -5.2387  -5.2216  -5.2148  -5.2098  -5.1920
    -5.1858  -5.1736  -5.1296  -5.1185  -5.1109  -5.1066  -5.1030  -5.0230
    -5.0165  -4.9895  -4.9727  -4.9663  -4.9399  -4.8710  -4.8597  -4.8410
    -4.4096  -3.9606  -3.9382  -3.8360  -3.4369  -3.3722  -3.3013  -2.7846
    -0.8129  -0.6859  -0.6439  -0.6264  -0.5362  -0.5096  -0.4397  -0.3950
    -0.3537  -0.2745  -0.1902  -0.0924   0.3916   0.4459   0.4924   0.5589
     0.6004   0.6624   0.6927   0.7226   0.7860   0.8382   0.8916   0.9257
     0.9581   1.0260   1.0490   1.0779   1.0985   1.1295   1.1521   1.1649
     1.1744   1.2283   1.2371   1.2641   1.2869   1.2994   1.3405   1.3618
     1.3695   1.4062   1.4246   1.4616   1.4914   1.5027   1.5332   1.5621
     1.5797   1.6016   1.6378   1.6680   1.6884   1.7002   1.7214   1.7558
     1.7946   1.8178   1.8713   1.9254   1.9718   2.0326   2.0934   2.1271
     2.1979   2.2135   2.2869   2.3756   2.5886   2.6236   2.8034   3.1355

          k =-0.1250-0.1250 0.3750 (132608 PWs)   bands (ev):

   -18.5471 -18.4630 -18.4601 -18.4532 -18.4482 -18.4410 -18.4366 -18.4022
   -18.3991 -18.3940 -18.3878 -18.3844 -18.3840 -18.3806 -18.3744 -18.3718
   -18.3664 -18.3619 -18.3604 -18.3546 -18.3468 -18.3442 -18.3369 -18.3313
   -18.3245 -18.3236 -18.3193 -18.3091 -18.3027 -18.2884 -18.2219 -18.1842
   -18.1777 -18.1681 -18.1639 -18.1538 -18.1437 -18.0697 -18.0623 -18.0620
   -18.0536 -18.0507 -18.0454 -18.0424 -18.0423 -18.0377 -18.0368 -18.0275
    -9.4877  -9.3741  -9.3327  -9.2837  -9.2163  -9.1903  -9.1177  -9.0779
    -9.0487  -8.9800  -8.9571  -8.9298  -8.9071  -8.8701  -8.7971  -8.7596
    -8.7253  -8.6974  -8.6562  -8.6340  -8.5971  -8.5661  -8.5186  -8.4219
    -5.3230  -5.3212  -5.3071  -5.2391  -5.2217  -5.2156  -5.2097  -5.1920
    -5.1858  -5.1732  -5.1297  -5.1175  -5.1109  -5.1069  -5.1039  -5.0231
    -5.0163  -4.9894  -4.9725  -4.9656  -4.9390  -4.8710  -4.8612  -4.8415
    -4.2926  -4.0414  -3.8446  -3.7951  -3.5343  -3.4906  -3.2923  -2.9921
    -0.7962  -0.6318  -0.6187  -0.4963  -0.4764  -0.3893  -0.2997  -0.2293
    -0.0937  -0.0470  -0.0033   0.0880   0.3807   0.4047   0.4376   0.4702
     0.5451   0.5766   0.6178   0.6642   0.6943   0.7259   0.7841   0.8065
     0.8537   0.8999   0.9576   0.9664   1.0346   1.0853   1.0961   1.1460
     1.1579   1.1920   1.2134   1.2754   1.2857   1.3214   1.3445   1.3762
     1.3961   1.4235   1.4471   1.4649   1.5029   1.5284   1.5434   1.5679
     1.5948   1.6153   1.6484   1.6725   1.6911   1.7003   1.7272   1.7761
     1.8138   1.8362   1.8701   1.8858   1.9230   1.9563   2.0147   2.0592
     2.0838   2.1508   2.2521   2.3398   2.4736   2.5615   2.6016   2.8913

          k =-0.1250 0.1250-0.3750 (132608 PWs)   bands (ev):

   -18.5471 -18.4630 -18.4601 -18.4532 -18.4482 -18.4410 -18.4366 -18.4022
   -18.3991 -18.3940 -18.3878 -18.3844 -18.3840 -18.3806 -18.3744 -18.3718
   -18.3664 -18.3619 -18.3604 -18.3546 -18.3468 -18.3442 -18.3369 -18.3313
   -18.3245 -18.3236 -18.3193 -18.3091 -18.3027 -18.2884 -18.2219 -18.1842
   -18.1777 -18.1681 -18.1639 -18.1538 -18.1437 -18.0697 -18.0623 -18.0620
   -18.0536 -18.0507 -18.0454 -18.0424 -18.0423 -18.0377 -18.0368 -18.0275
    -9.4879  -9.3734  -9.3323  -9.2844  -9.2171  -9.1899  -9.1196  -9.0805
    -9.0421  -8.9845  -8.9528  -8.9249  -8.9117  -8.8713  -8.7988  -8.7613
    -8.7229  -8.6956  -8.6597  -8.6318  -8.5978  -8.5650  -8.5192  -8.4219
    -5.3230  -5.3212  -5.3070  -5.2390  -5.2218  -5.2156  -5.2097  -5.1919
    -5.1858  -5.1732  -5.1298  -5.1175  -5.1109  -5.1069  -5.1039  -5.0231
    -5.0163  -4.9894  -4.9724  -4.9657  -4.9390  -4.8710  -4.8613  -4.8416
    -4.2926  -4.0385  -3.8448  -3.8007  -3.5443  -3.4742  -3.2958  -2.9922
    -0.7955  -0.6448  -0.6069  -0.4923  -0.4796  -0.3911  -0.3055  -0.2297
    -0.1077  -0.0273   0.0011   0.0927   0.3799   0.3997   0.4583   0.4811
     0.5387   0.5745   0.6206   0.6578   0.6932   0.7055   0.7823   0.8118
     0.8569   0.8896   0.9507   0.9852   1.0157   1.0621   1.0842   1.1438
     1.1720   1.2026   1.2405   1.2664   1.2842   1.3135   1.3506   1.3674
     1.3870   1.4307   1.4564   1.4730   1.5080   1.5359   1.5496   1.5627
     1.5917   1.6163   1.6288   1.6670   1.6821   1.7155   1.7251   1.7706
     1.8097   1.8373   1.8736   1.8825   1.9285   1.9857   2.0087   2.0579
     2.1070   2.1290   2.2554   2.3398   2.4606   2.5699   2.6038   2.8793

          k = 0.1250-0.1250-0.3750 (132608 PWs)   bands (ev):

   -18.5471 -18.4630 -18.4601 -18.4532 -18.4482 -18.4410 -18.4366 -18.4022
   -18.3991 -18.3940 -18.3878 -18.3844 -18.3840 -18.3806 -18.3744 -18.3718
   -18.3664 -18.3619 -18.3604 -18.3546 -18.3468 -18.3442 -18.3369 -18.3313
   -18.3245 -18.3236 -18.3193 -18.3091 -18.3027 -18.2884 -18.2219 -18.1842
   -18.1777 -18.1681 -18.1639 -18.1538 -18.1437 -18.0697 -18.0623 -18.0620
   -18.0536 -18.0507 -18.0454 -18.0424 -18.0423 -18.0377 -18.0368 -18.0275
    -9.4879  -9.3731  -9.3337  -9.2835  -9.2146  -9.1930  -9.1182  -9.0765
    -9.0480  -8.9790  -8.9567  -8.9321  -8.9050  -8.8729  -8.7962  -8.7619
    -8.7217  -8.7004  -8.6493  -8.6391  -8.5968  -8.5666  -8.5183  -8.4219
    -5.3230  -5.3212  -5.3071  -5.2391  -5.2217  -5.2156  -5.2097  -5.1919
    -5.1857  -5.1733  -5.1293  -5.1180  -5.1111  -5.1068  -5.1037  -5.0230
    -5.0164  -4.9894  -4.9725  -4.9657  -4.9390  -4.8710  -4.8612  -4.8416
    -4.2918  -4.0412  -3.8492  -3.7895  -3.5562  -3.4699  -3.2899  -2.9958
    -0.7881  -0.6426  -0.6017  -0.5102  -0.4786  -0.3924  -0.3119  -0.2189
    -0.0897  -0.0409  -0.0087   0.0939   0.3895   0.4002   0.4320   0.4776
     0.5398   0.5769   0.6148   0.6715   0.6979   0.7318   0.7783   0.8068
     0.8431   0.8851   0.9545   0.9901   1.0308   1.0728   1.0901   1.1467
     1.1748   1.1899   1.2254   1.2660   1.2920   1.3096   1.3426   1.3625
     1.3796   1.4159   1.4546   1.4714   1.4969   1.5288   1.5583   1.5798
     1.5981   1.6241   1.6349   1.6523   1.6850   1.7058   1.7339   1.7750
     1.8033   1.8465   1.8693   1.8928   1.9246   1.9733   2.0205   2.0656
     2.1099   2.1362   2.2561   2.3413   2.4535   2.5668   2.5880   2.8844

          k = 0.3750-0.1250 0.1250 (132608 PWs)   bands (ev):

   -18.5471 -18.4630 -18.4601 -18.4532 -18.4482 -18.4410 -18.4366 -18.4022
   -18.3991 -18.3940 -18.3877 -18.3844 -18.3840 -18.3806 -18.3744 -18.3718
   -18.3664 -18.3619 -18.3604 -18.3546 -18.3468 -18.3442 -18.3369 -18.3313
   -18.3245 -18.3236 -18.3193 -18.3091 -18.3027 -18.2884 -18.2219 -18.1842
   -18.1777 -18.1681 -18.1639 -18.1538 -18.1437 -18.0697 -18.0623 -18.0620
   -18.0536 -18.0507 -18.0454 -18.0424 -18.0423 -18.0377 -18.0368 -18.0275
    -9.4862  -9.3793  -9.3266  -9.2891  -9.2194  -9.1818  -9.1174  -9.0833
    -9.0410  -8.9922  -8.9487  -8.9406  -8.8935  -8.8660  -8.8021  -8.7534
    -8.7392  -8.6993  -8.6683  -8.6317  -8.5874  -8.5563  -8.5109  -8.4327
    -5.3231  -5.3213  -5.3083  -5.2386  -5.2218  -5.2144  -5.2096  -5.1919
    -5.1859  -5.1735  -5.1302  -5.1179  -5.1109  -5.1065  -5.1031  -5.0229
    -5.0166  -4.9899  -4.9723  -4.9661  -4.9401  -4.8710  -4.8601  -4.8412
    -4.2987  -4.0714  -3.8618  -3.7426  -3.5721  -3.4901  -3.2493  -2.9545
    -0.7399  -0.6489  -0.5963  -0.5354  -0.5227  -0.4522  -0.3728  -0.2476
    -0.1500  -0.1030  -0.0095   0.1590   0.3389   0.4448   0.4552   0.5066
     0.5299   0.5701   0.6327   0.6407   0.7129   0.7442   0.7664   0.8269
     0.9082   0.9369   0.9510   1.0196   1.0466   1.0720   1.0945   1.1465
     1.1695   1.1967   1.2304   1.2503   1.2845   1.3012   1.3338   1.3622
     1.4004   1.4202   1.4607   1.4754   1.4855   1.5149   1.5342   1.5569
     1.5720   1.5963   1.6204   1.6377   1.6678   1.7102   1.7297   1.7852
     1.8156   1.8359   1.8870   1.9084   1.9834   1.9918   2.0287   2.0786
     2.1432   2.2123   2.2627   2.2884   2.4104   2.5378   2.7581   2.9483

          k =-0.3750-0.1250-0.1250 (132608 PWs)   bands (ev):

   -18.5471 -18.4630 -18.4601 -18.4532 -18.4482 -18.4410 -18.4366 -18.4022
   -18.3991 -18.3940 -18.3877 -18.3844 -18.3840 -18.3806 -18.3744 -18.3718
   -18.3664 -18.3619 -18.3604 -18.3546 -18.3468 -18.3442 -18.3369 -18.3313
   -18.3245 -18.3236 -18.3193 -18.3091 -18.3027 -18.2884 -18.2219 -18.1842
   -18.1777 -18.1681 -18.1639 -18.1538 -18.1437 -18.0697 -18.0623 -18.0620
   -18.0536 -18.0507 -18.0454 -18.0424 -18.0423 -18.0377 -18.0368 -18.0275
    -9.4860  -9.3802  -9.3261  -9.2891  -9.2185  -9.1823  -9.1168  -9.0796
    -9.0492  -8.9887  -8.9500  -8.9372  -8.8929  -8.8691  -8.8035  -8.7566
    -8.7335  -8.6995  -8.6650  -8.6353  -8.5877  -8.5565  -8.5104  -8.4326
    -5.3231  -5.3213  -5.3083  -5.2386  -5.2219  -5.2144  -5.2096  -5.1919
    -5.1859  -5.1737  -5.1297  -5.1186  -5.1110  -5.1064  -5.1029  -5.0229
    -5.0167  -4.9899  -4.9724  -4.9660  -4.9401  -4.8710  -4.8601  -4.8412
    -4.2993  -4.0694  -3.8629  -3.7497  -3.5609  -3.4881  -3.2566  -2.9542
    -0.7340  -0.6330  -0.5901  -0.5556  -0.5340  -0.4341  -0.3776  -0.2366
    -0.1828  -0.0890  -0.0013   0.1083   0.3295   0.4601   0.4725   0.5087
     0.5537   0.5685   0.6409   0.6710   0.6950   0.7521   0.7717   0.8065
     0.8847   0.9386   0.9665   1.0131   1.0293   1.0753   1.1187   1.1309
     1.1727   1.2055   1.2240   1.2366   1.2811   1.3014   1.3480   1.3794
     1.4032   1.4268   1.4431   1.4595   1.4885   1.5034   1.5343   1.5535
     1.5778   1.5926   1.6013   1.6529   1.6917   1.7258   1.7460   1.7778
     1.8078   1.8336   1.8941   1.9132   1.9493   1.9837   2.0255   2.0824
     2.1399   2.2095   2.2621   2.2952   2.4122   2.5345   2.7680   2.9468

          k = 0.3750 0.1250-0.1250 (132608 PWs)   bands (ev):

   -18.5471 -18.4630 -18.4601 -18.4532 -18.4482 -18.4410 -18.4366 -18.4022
   -18.3991 -18.3940 -18.3877 -18.3844 -18.3840 -18.3806 -18.3744 -18.3718
   -18.3664 -18.3619 -18.3604 -18.3546 -18.3468 -18.3442 -18.3369 -18.3313
   -18.3245 -18.3236 -18.3193 -18.3091 -18.3027 -18.2884 -18.2219 -18.1842
   -18.1777 -18.1681 -18.1639 -18.1538 -18.1437 -18.0697 -18.0623 -18.0620
   -18.0536 -18.0507 -18.0454 -18.0424 -18.0423 -18.0377 -18.0368 -18.0275
    -9.4859  -9.3805  -9.3251  -9.2905  -9.2179  -9.1827  -9.1140  -9.0832
    -9.0455  -8.9885  -8.9541  -8.9408  -8.8924  -8.8649  -8.8001  -8.7510
    -8.7417  -8.7012  -8.6663  -8.6329  -8.5857  -8.5586  -8.5100  -8.4327
    -5.3231  -5.3213  -5.3084  -5.2387  -5.2218  -5.2144  -5.2096  -5.1920
    -5.1859  -5.1736  -5.1301  -5.1180  -5.1108  -5.1064  -5.1031  -5.0230
    -5.0166  -4.9899  -4.9724  -4.9660  -4.9402  -4.8710  -4.8601  -4.8411
    -4.2991  -4.0715  -3.8602  -3.7442  -3.5709  -3.4893  -3.2516  -2.9540
    -0.7389  -0.6604  -0.5829  -0.5555  -0.5087  -0.4229  -0.3829  -0.2399
    -0.1873  -0.0871   0.0075   0.1063   0.3189   0.4550   0.4933   0.5144
     0.5342   0.5517   0.6548   0.6750   0.7149   0.7388   0.7680   0.7982
     0.9116   0.9384   0.9503   1.0058   1.0359   1.0689   1.1087   1.1331
     1.1624   1.1929   1.2295   1.2534   1.2810   1.3145   1.3542   1.3775
     1.3902   1.4144   1.4460   1.4613   1.4779   1.5168   1.5419   1.5607
     1.5907   1.6079   1.6180   1.6447   1.6756   1.7203   1.7371   1.7752
     1.7968   1.8342   1.8747   1.9015   1.9480   2.0088   2.0244   2.0944
     2.1356   2.2201   2.2573   2.3058   2.4049   2.5238   2.7711   2.9501

          k =-0.3750 0.1250 0.1250 (132608 PWs)   bands (ev):

   -18.5471 -18.4630 -18.4601 -18.4532 -18.4482 -18.4410 -18.4366 -18.4022
   -18.3991 -18.3940 -18.3877 -18.3844 -18.3840 -18.3806 -18.3744 -18.3718
   -18.3664 -18.3619 -18.3604 -18.3546 -18.3468 -18.3442 -18.3369 -18.3313
   -18.3245 -18.3236 -18.3193 -18.3091 -18.3027 -18.2884 -18.2219 -18.1842
   -18.1777 -18.1681 -18.1639 -18.1538 -18.1437 -18.0697 -18.0623 -18.0620
   -18.0536 -18.0507 -18.0454 -18.0424 -18.0423 -18.0377 -18.0368 -18.0275
    -9.4861  -9.3789  -9.3283  -9.2883  -9.2188  -9.1823  -9.1147  -9.0792
    -9.0500  -8.9889  -8.9485  -8.9431  -8.8926  -8.8662  -8.8007  -8.7543
    -8.7374  -8.7032  -8.6627  -8.6349  -8.5867  -8.5572  -8.5104  -8.4327
    -5.3231  -5.3213  -5.3084  -5.2387  -5.2218  -5.2144  -5.2096  -5.1919
    -5.1858  -5.1737  -5.1298  -5.1186  -5.1109  -5.1063  -5.1029  -5.0229
    -5.0166  -4.9899  -4.9723  -4.9660  -4.9402  -4.8710  -4.8601  -4.8412
    -4.2979  -4.0720  -3.8644  -3.7403  -3.5723  -3.4881  -3.2496  -2.9563
    -0.7177  -0.6409  -0.6018  -0.5704  -0.5242  -0.4521  -0.3612  -0.2517
    -0.1495  -0.1043  -0.0021   0.1589   0.3296   0.4390   0.4661   0.5041
     0.5330   0.5611   0.6372   0.6612   0.7157   0.7336   0.7705   0.8147
     0.8787   0.9347   0.9725   1.0126   1.0556   1.0857   1.1138   1.1543
     1.1719   1.1946   1.2239   1.2366   1.2727   1.3144   1.3401   1.3623
     1.3847   1.4201   1.4413   1.4762   1.4874   1.4917   1.5348   1.5548
     1.5779   1.6027   1.6228   1.6553   1.6797   1.7078   1.7538   1.7695
     1.8129   1.8398   1.8563   1.9157   1.9697   2.0067   2.0501   2.0831
     2.1389   2.2108   2.2702   2.2824   2.4079   2.5358   2.7416   2.9548

          k =-0.1250 0.3750 0.1250 (132608 PWs)   bands (ev):

   -18.5471 -18.4630 -18.4601 -18.4532 -18.4482 -18.4410 -18.4366 -18.4022
   -18.3991 -18.3940 -18.3878 -18.3844 -18.3840 -18.3806 -18.3744 -18.3718
   -18.3664 -18.3619 -18.3604 -18.3546 -18.3468 -18.3442 -18.3369 -18.3313
   -18.3245 -18.3236 -18.3193 -18.3091 -18.3027 -18.2884 -18.2219 -18.1842
   -18.1777 -18.1681 -18.1639 -18.1538 -18.1437 -18.0697 -18.0623 -18.0620
   -18.0536 -18.0507 -18.0454 -18.0424 -18.0423 -18.0377 -18.0368 -18.0275
    -9.4704  -9.4179  -9.3198  -9.2729  -9.2193  -9.1656  -9.1192  -9.0887
    -9.0649  -8.9767  -8.9501  -8.9249  -8.9055  -8.8634  -8.8012  -8.7641
    -8.7364  -8.7103  -8.6622  -8.6201  -8.5909  -8.5576  -8.5154  -8.4290
    -5.3232  -5.3212  -5.3082  -5.2387  -5.2220  -5.2148  -5.2098  -5.1925
    -5.1854  -5.1739  -5.1283  -5.1187  -5.1108  -5.1067  -5.1033  -5.0233
    -5.0168  -4.9896  -4.9727  -4.9663  -4.9402  -4.8711  -4.8592  -4.8412
    -4.2903  -4.1040  -3.8188  -3.7349  -3.5856  -3.5306  -3.1901  -2.9786
    -0.7229  -0.6549  -0.6357  -0.5755  -0.4955  -0.4370  -0.3820  -0.3237
    -0.2221  -0.0738   0.0939   0.1951   0.2218   0.4462   0.4687   0.5327
     0.5470   0.6074   0.6568   0.6667   0.7144   0.7367   0.8033   0.8488
     0.9161   0.9407   0.9843   1.0122   1.0383   1.0741   1.0973   1.1186
     1.1590   1.2027   1.2152   1.2314   1.2838   1.2946   1.3347   1.3661
     1.3761   1.4039   1.4388   1.4501   1.4794   1.5030   1.5534   1.5678
     1.5934   1.6126   1.6369   1.6653   1.7011   1.7249   1.7285   1.7910
     1.8253   1.8539   1.8808   1.8995   1.9579   1.9853   2.0624   2.1148
     2.1438   2.2045   2.2346   2.3123   2.4046   2.4858   2.7231   2.9074

          k =-0.1250-0.3750-0.1250 (132608 PWs)   bands (ev):

   -18.5471 -18.4630 -18.4601 -18.4532 -18.4482 -18.4410 -18.4366 -18.4022
   -18.3991 -18.3940 -18.3878 -18.3844 -18.3840 -18.3806 -18.3744 -18.3718
   -18.3664 -18.3619 -18.3604 -18.3546 -18.3468 -18.3442 -18.3369 -18.3313
   -18.3245 -18.3236 -18.3193 -18.3091 -18.3027 -18.2884 -18.2219 -18.1842
   -18.1777 -18.1681 -18.1639 -18.1538 -18.1437 -18.0697 -18.0623 -18.0620
   -18.0536 -18.0507 -18.0454 -18.0424 -18.0423 -18.0377 -18.0368 -18.0275
    -9.4701  -9.4187  -9.3194  -9.2720  -9.2175  -9.1693  -9.1194  -9.0933
    -9.0585  -8.9763  -8.9489  -8.9249  -8.9042  -8.8670  -8.8038  -8.7626
    -8.7357  -8.7075  -8.6637  -8.6208  -8.5908  -8.5578  -8.5152  -8.4289
    -5.3232  -5.3212  -5.3081  -5.2386  -5.2220  -5.2148  -5.2097  -5.1925
    -5.1855  -5.1739  -5.1282  -5.1188  -5.1109  -5.1068  -5.1033  -5.0233
    -5.0168  -4.9896  -4.9728  -4.9663  -4.9401  -4.8711  -4.8592  -4.8412
    -4.2915  -4.1027  -3.8147  -3.7440  -3.5763  -3.5328  -3.1946  -2.9766
    -0.7324  -0.6519  -0.6361  -0.5567  -0.4862  -0.4387  -0.3906  -0.3246
    -0.2249  -0.0804   0.0785   0.1761   0.2194   0.4634   0.4807   0.5397
     0.5634   0.5976   0.6550   0.6861   0.7159   0.7461   0.7915   0.8511
     0.9092   0.9437   0.9622   1.0146   1.0403   1.0685   1.0934   1.1233
     1.1606   1.1825   1.2006   1.2544   1.2802   1.2918   1.3385   1.3679
     1.3910   1.4237   1.4407   1.4663   1.4882   1.5109   1.5337   1.5567
     1.5831   1.6103   1.6151   1.6693   1.6994   1.7189   1.7573   1.8045
     1.8181   1.8581   1.8807   1.8943   1.9309   1.9928   2.0634   2.0908
     2.1485   2.1666   2.2509   2.3442   2.3883   2.4934   2.7434   2.9045

          k = 0.1250 0.3750-0.1250 (132608 PWs)   bands (ev):

   -18.5471 -18.4630 -18.4601 -18.4532 -18.4482 -18.4410 -18.4366 -18.4022
   -18.3991 -18.3940 -18.3878 -18.3844 -18.3840 -18.3806 -18.3744 -18.3718
   -18.3664 -18.3619 -18.3604 -18.3546 -18.3468 -18.3442 -18.3369 -18.3313
   -18.3245 -18.3236 -18.3193 -18.3091 -18.3027 -18.2884 -18.2219 -18.1842
   -18.1777 -18.1681 -18.1639 -18.1538 -18.1437 -18.0697 -18.0623 -18.0620
   -18.0536 -18.0507 -18.0454 -18.0424 -18.0423 -18.0377 -18.0368 -18.0275
    -9.4700  -9.4188  -9.3184  -9.2755  -9.2157  -9.1691  -9.1138  -9.0938
    -9.0636  -8.9767  -8.9511  -8.9262  -8.9051  -8.8613  -8.8012  -8.7604
    -8.7415  -8.7082  -8.6645  -8.6192  -8.5900  -8.5582  -8.5154  -8.4289
    -5.3231  -5.3212  -5.3082  -5.2387  -5.2220  -5.2148  -5.2097  -5.1925
    -5.1855  -5.1737  -5.1287  -5.1181  -5.1106  -5.1068  -5.1035  -5.0234
    -5.0168  -4.9896  -4.9728  -4.9662  -4.9402  -4.8711  -4.8592  -4.8412
    -4.2917  -4.1019  -3.8211  -3.7329  -3.5928  -3.5208  -3.1980  -2.9734
    -0.7437  -0.6601  -0.6277  -0.5514  -0.4759  -0.4621  -0.3724  -0.3194
    -0.2250  -0.0810   0.0793   0.1833   0.2162   0.4442   0.4841   0.5388
     0.5822   0.6068   0.6530   0.6744   0.6926   0.7475   0.7957   0.8659
     0.8912   0.9632   0.9671   0.9997   1.0430   1.0617   1.0922   1.1225
     1.1412   1.2057   1.2215   1.2551   1.2856   1.3004   1.3134   1.3642
     1.3697   1.4201   1.4467   1.4564   1.4814   1.5155   1.5366   1.5777
     1.5911   1.6230   1.6421   1.6784   1.6913   1.7156   1.7419   1.8052
     1.8140   1.8318   1.8774   1.8994   1.9178   2.0009   2.0649   2.1025
     2.1411   2.1823   2.2384   2.3353   2.4050   2.4829   2.7562   2.8946

          k = 0.1250-0.3750 0.1250 (132608 PWs)   bands (ev):

   -18.5471 -18.4630 -18.4601 -18.4532 -18.4482 -18.4410 -18.4366 -18.4022
   -18.3991 -18.3940 -18.3878 -18.3844 -18.3840 -18.3806 -18.3744 -18.3718
   -18.3664 -18.3619 -18.3604 -18.3546 -18.3468 -18.3442 -18.3369 -18.3313
   -18.3245 -18.3236 -18.3193 -18.3091 -18.3027 -18.2884 -18.2219 -18.1842
   -18.1777 -18.1681 -18.1639 -18.1538 -18.1437 -18.0697 -18.0623 -18.0620
   -18.0536 -18.0507 -18.0454 -18.0424 -18.0423 -18.0377 -18.0368 -18.0275
    -9.4704  -9.4180  -9.3191  -9.2728  -9.2194  -9.1668  -9.1139  -9.1028
    -9.0542  -8.9774  -8.9490  -8.9251  -8.9071  -8.8623  -8.8030  -8.7589
    -8.7423  -8.7074  -8.6657  -8.6178  -8.5908  -8.5573  -8.5159  -8.4290
    -5.3232  -5.3212  -5.3081  -5.2386  -5.2220  -5.2148  -5.2098  -5.1925
    -5.1855  -5.1737  -5.1288  -5.1181  -5.1106  -5.1068  -5.1036  -5.0233
    -5.0167  -4.9896  -4.9727  -4.9664  -4.9401  -4.8710  -4.8592  -4.8412
    -4.2909  -4.1033  -3.8196  -3.7324  -3.5929  -3.5247  -3.1937  -2.9750
    -0.7450  -0.6503  -0.6328  -0.5656  -0.4753  -0.4504  -0.3729  -0.3329
    -0.2239  -0.0776   0.0979   0.1995   0.2236   0.4236   0.4878   0.5316
     0.5653   0.6196   0.6403   0.6835   0.6898   0.7322   0.7938   0.8699
     0.8820   0.9472   0.9755   0.9995   1.0462   1.0807   1.0968   1.1243
     1.1741   1.1973   1.2159   1.2357   1.2733   1.2913   1.3327   1.3501
     1.3932   1.4227   1.4483   1.4646   1.4860   1.5259   1.5379   1.5623
     1.5821   1.6055   1.6221   1.6627   1.6960   1.7166   1.7381   1.7974
     1.8299   1.8408   1.8855   1.9016   1.9431   1.9997   2.0649   2.1027
     2.1356   2.1852   2.2418   2.3392   2.3952   2.4958   2.7244   2.9098

          k =-0.1250-0.3750 0.3750 (132616 PWs)   bands (ev):

   -18.5471 -18.4630 -18.4601 -18.4532 -18.4482 -18.4410 -18.4366 -18.4022
   -18.3991 -18.3940 -18.3878 -18.3844 -18.3840 -18.3806 -18.3744 -18.3718
   -18.3664 -18.3619 -18.3604 -18.3546 -18.3468 -18.3442 -18.3369 -18.3313
   -18.3245 -18.3236 -18.3193 -18.3091 -18.3027 -18.2884 -18.2219 -18.1842
   -18.1777 -18.1681 -18.1639 -18.1538 -18.1437 -18.0697 -18.0623 -18.0620
   -18.0536 -18.0507 -18.0454 -18.0424 -18.0423 -18.0377 -18.0368 -18.0275
    -9.4647  -9.4111  -9.3252  -9.2849  -9.2141  -9.1688  -9.1229  -9.0939
    -9.0562  -8.9798  -8.9526  -8.9241  -8.9124  -8.8674  -8.7951  -8.7517
    -8.7374  -8.6974  -8.6625  -8.6197  -8.5943  -8.5625  -8.5188  -8.4290
    -5.3230  -5.3212  -5.3071  -5.2391  -5.2221  -5.2156  -5.2098  -5.1924
    -5.1854  -5.1737  -5.1296  -5.1167  -5.1111  -5.1068  -5.1035  -5.0233
    -5.0165  -4.9896  -4.9725  -4.9655  -4.9392  -4.8712  -4.8606  -4.8416
    -4.1775  -3.9991  -3.9090  -3.7464  -3.6255  -3.4740  -3.3714  -3.1627
    -0.6584  -0.6077  -0.5920  -0.4319  -0.2813  -0.2195  -0.1831  -0.1341
    -0.0164   0.0165   0.1274   0.1843   0.2181   0.3830   0.4288   0.4456
     0.4901   0.5599   0.5919   0.6156   0.6596   0.7127   0.7479   0.7853
     0.8256   0.8741   0.8978   0.9307   0.9887   1.0281   1.0568   1.0930
     1.1217   1.1414   1.1684   1.2249   1.2407   1.2687   1.3204   1.3307
     1.3549   1.3939   1.4385   1.4706   1.4892   1.5247   1.5449   1.5799
     1.5977   1.6323   1.6627   1.6921   1.7207   1.7409   1.7666   1.7877
     1.8327   1.8538   1.8731   1.8903   1.9227   1.9495   2.0000   2.0375
     2.0628   2.1323   2.1709   2.2609   2.3362   2.3801   2.5174   2.6440

          k =-0.1250 0.3750-0.3750 (132616 PWs)   bands (ev):

   -18.5471 -18.4630 -18.4601 -18.4532 -18.4482 -18.4410 -18.4366 -18.4022
   -18.3991 -18.3940 -18.3878 -18.3844 -18.3840 -18.3806 -18.3744 -18.3718
   -18.3664 -18.3619 -18.3604 -18.3546 -18.3468 -18.3442 -18.3369 -18.3313
   -18.3245 -18.3236 -18.3193 -18.3091 -18.3027 -18.2884 -18.2219 -18.1842
   -18.1777 -18.1681 -18.1639 -18.1538 -18.1437 -18.0697 -18.0623 -18.0620
   -18.0536 -18.0507 -18.0454 -18.0424 -18.0423 -18.0377 -18.0368 -18.0275
    -9.4651  -9.4104  -9.3251  -9.2841  -9.2158  -9.1688  -9.1216  -9.1019
    -9.0470  -8.9797  -8.9507  -8.9284  -8.9100  -8.8694  -8.7958  -8.7534
    -8.7351  -8.6958  -8.6653  -8.6185  -8.5937  -8.5627  -8.5190  -8.4290
    -5.3230  -5.3212  -5.3070  -5.2391  -5.2221  -5.2156  -5.2098  -5.1924
    -5.1854  -5.1737  -5.1297  -5.1167  -5.1111  -5.1068  -5.1036  -5.0232
    -5.0165  -4.9896  -4.9725  -4.9656  -4.9391  -4.8711  -4.8606  -4.8417
    -4.1769  -4.0000  -3.9031  -3.7590  -3.6204  -3.4757  -3.3653  -3.1652
    -0.6612  -0.6092  -0.5850  -0.4374  -0.2883  -0.2227  -0.1766  -0.1377
    -0.0176   0.0106   0.1493   0.1961   0.2317   0.3747   0.4230   0.4567
     0.4854   0.5566   0.5994   0.6291   0.6482   0.6958   0.7413   0.7548
     0.8400   0.8725   0.9033   0.9174   0.9844   1.0286   1.0649   1.0862
     1.1149   1.1508   1.1765   1.2100   1.2385   1.2893   1.3058   1.3308
     1.3708   1.4026   1.4442   1.4855   1.4950   1.5161   1.5390   1.5728
     1.5998   1.6282   1.6448   1.6963   1.7255   1.7425   1.7478   1.7815
     1.8240   1.8440   1.8847   1.9047   1.9291   1.9636   2.0018   2.0498
     2.0768   2.1068   2.1712   2.2864   2.3267   2.3902   2.4865   2.6458

          k = 0.1250-0.3750-0.3750 (132616 PWs)   bands (ev):

   -18.5471 -18.4630 -18.4601 -18.4532 -18.4482 -18.4410 -18.4366 -18.4022
   -18.3991 -18.3940 -18.3878 -18.3844 -18.3840 -18.3806 -18.3744 -18.3718
   -18.3664 -18.3619 -18.3604 -18.3546 -18.3468 -18.3442 -18.3369 -18.3313
   -18.3245 -18.3236 -18.3193 -18.3091 -18.3027 -18.2884 -18.2219 -18.1842
   -18.1777 -18.1681 -18.1639 -18.1538 -18.1437 -18.0697 -18.0623 -18.0620
   -18.0536 -18.0507 -18.0454 -18.0424 -18.0423 -18.0377 -18.0368 -18.0275
    -9.4651  -9.4103  -9.3257  -9.2842  -9.2156  -9.1681  -9.1241  -9.0938
    -9.0543  -8.9783  -8.9518  -8.9295  -8.9081  -8.8700  -8.7939  -8.7568
    -8.7322  -8.6990  -8.6594  -8.6219  -8.5939  -8.5630  -8.5184  -8.4290
    -5.3230  -5.3212  -5.3071  -5.2391  -5.2221  -5.2156  -5.2099  -5.1924
    -5.1853  -5.1739  -5.1293  -5.1172  -5.1113  -5.1067  -5.1033  -5.0231
    -5.0166  -4.9896  -4.9725  -4.9656  -4.9392  -4.8712  -4.8606  -4.8417
    -4.1752  -4.0022  -3.9114  -3.7176  -3.6663  -3.4625  -3.3585  -3.1719
    -0.6479  -0.6099  -0.5860  -0.4460  -0.2872  -0.2398  -0.1619  -0.1266
    -0.0600   0.0673   0.1219   0.1759   0.2300   0.4023   0.4253   0.4394
     0.4876   0.5368   0.5861   0.6406   0.6765   0.7032   0.7345   0.7795
     0.8149   0.8811   0.9145   0.9362   0.9724   1.0384   1.0489   1.0650
     1.1169   1.1546   1.1874   1.2121   1.2426   1.2762   1.3018   1.3364
     1.3583   1.4060   1.4266   1.4592   1.4938   1.5157   1.5572   1.5785
     1.6049   1.6262   1.6551   1.6891   1.7076   1.7387   1.7637   1.8039
     1.8256   1.8481   1.8772   1.9148   1.9356   1.9565   1.9971   2.0477
     2.0971   2.1223   2.1637   2.2586   2.3236   2.3876   2.4878   2.6451

          k = 0.3750 0.1250-0.3750 (132616 PWs)   bands (ev):

   -18.5471 -18.4630 -18.4601 -18.4532 -18.4482 -18.4410 -18.4366 -18.4022
   -18.3991 -18.3940 -18.3877 -18.3844 -18.3840 -18.3806 -18.3744 -18.3718
   -18.3664 -18.3619 -18.3604 -18.3546 -18.3468 -18.3442 -18.3369 -18.3313
   -18.3245 -18.3236 -18.3193 -18.3091 -18.3027 -18.2884 -18.2219 -18.1842
   -18.1777 -18.1681 -18.1639 -18.1538 -18.1437 -18.0697 -18.0623 -18.0620
   -18.0536 -18.0507 -18.0454 -18.0424 -18.0423 -18.0377 -18.0368 -18.0275
    -9.4803  -9.3735  -9.3291  -9.2989  -9.2140  -9.1904  -9.1176  -9.0784
    -9.0510  -8.9800  -8.9708  -8.9341  -8.9033  -8.8608  -8.7933  -8.7513
    -8.7282  -8.7007  -8.6563  -8.6338  -8.5890  -8.5662  -8.5120  -8.4333
    -5.3230  -5.3213  -5.3070  -5.2394  -5.2220  -5.2153  -5.2095  -5.1918
    -5.1857  -5.1732  -5.1298  -5.1174  -5.1111  -5.1066  -5.1038  -5.0230
    -5.0165  -4.9899  -4.9720  -4.9654  -4.9393  -4.8709  -4.8617  -4.8416
    -4.1875  -3.9835  -3.8830  -3.7614  -3.6517  -3.4674  -3.3828  -3.1558
    -0.7004  -0.5734  -0.5367  -0.3342  -0.2763  -0.2371  -0.2210  -0.1320
    -0.0190   0.0090   0.1039   0.1475   0.2936   0.3729   0.4270   0.4720
     0.4968   0.5366   0.5768   0.6042   0.6350   0.6933   0.7118   0.7443
     0.8194   0.8502   0.9352   0.9500   0.9746   1.0145   1.0403   1.0664
     1.1258   1.1549   1.1768   1.2224   1.2424   1.2937   1.3126   1.3326
     1.3762   1.4072   1.4384   1.4638   1.5046   1.5283   1.5525   1.5826
     1.5906   1.6279   1.6553   1.6790   1.6880   1.7354   1.7461   1.7722
     1.8065   1.8440   1.8564   1.8836   1.9067   1.9739   1.9959   2.0389
     2.1005   2.1427   2.1772   2.2048   2.3827   2.3936   2.5595   2.6993

          k =-0.3750-0.1250-0.3750 (132616 PWs)   bands (ev):

   -18.5471 -18.4630 -18.4601 -18.4532 -18.4482 -18.4410 -18.4366 -18.4022
   -18.3991 -18.3940 -18.3877 -18.3844 -18.3840 -18.3806 -18.3744 -18.3718
   -18.3664 -18.3619 -18.3604 -18.3546 -18.3468 -18.3442 -18.3369 -18.3313
   -18.3245 -18.3236 -18.3193 -18.3091 -18.3027 -18.2884 -18.2219 -18.1842
   -18.1777 -18.1681 -18.1639 -18.1538 -18.1437 -18.0697 -18.0623 -18.0620
   -18.0536 -18.0507 -18.0454 -18.0424 -18.0423 -18.0377 -18.0368 -18.0275
    -9.4804  -9.3730  -9.3307  -9.2971  -9.2146  -9.1900  -9.1197  -9.0747
    -9.0552  -8.9845  -8.9607  -8.9331  -8.9038  -8.8646  -8.7963  -8.7540
    -8.7227  -8.6998  -8.6511  -8.6395  -8.5918  -8.5632  -8.5125  -8.4333
    -5.3230  -5.3213  -5.3069  -5.2393  -5.2221  -5.2153  -5.2095  -5.1917
    -5.1856  -5.1734  -5.1294  -5.1180  -5.1113  -5.1066  -5.1036  -5.0229
    -5.0166  -4.9898  -4.9720  -4.9654  -4.9392  -4.8709  -4.8617  -4.8416
    -4.1881  -3.9702  -3.9027  -3.7603  -3.6471  -3.4387  -3.4107  -3.1557
    -0.7014  -0.5597  -0.5256  -0.3539  -0.2794  -0.2438  -0.2062  -0.1479
    -0.0577   0.0548   0.0760   0.1543   0.3128   0.4025   0.4411   0.4584
     0.4827   0.5276   0.5784   0.6073   0.6497   0.6583   0.7137   0.7351
     0.8146   0.8763   0.9257   0.9657   0.9851   0.9967   1.0451   1.0819
     1.0981   1.1728   1.1780   1.2111   1.2607   1.2762   1.3079   1.3475
     1.3556   1.4043   1.4248   1.4741   1.5165   1.5412   1.5538   1.5666
     1.5982   1.6264   1.6446   1.6679   1.6912   1.7437   1.7460   1.7715
     1.8196   1.8391   1.8527   1.8820   1.9191   1.9726   2.0089   2.0522
     2.0843   2.1227   2.1591   2.2180   2.3797   2.4130   2.5566   2.6941

          k = 0.3750-0.1250 0.3750 (132616 PWs)   bands (ev):

   -18.5471 -18.4630 -18.4601 -18.4532 -18.4482 -18.4410 -18.4366 -18.4022
   -18.3991 -18.3940 -18.3877 -18.3844 -18.3840 -18.3806 -18.3744 -18.3718
   -18.3664 -18.3619 -18.3604 -18.3546 -18.3468 -18.3442 -18.3369 -18.3313
   -18.3245 -18.3236 -18.3193 -18.3091 -18.3027 -18.2884 -18.2219 -18.1842
   -18.1777 -18.1681 -18.1639 -18.1538 -18.1437 -18.0697 -18.0623 -18.0620
   -18.0536 -18.0507 -18.0454 -18.0424 -18.0423 -18.0377 -18.0368 -18.0275
    -9.4805  -9.3726  -9.3287  -9.2996  -9.2147  -9.1902  -9.1202  -9.0796
    -9.0454  -8.9863  -8.9635  -8.9344  -8.9035  -8.8624  -8.7950  -8.7532
    -8.7259  -8.6987  -8.6595  -8.6317  -8.5902  -8.5646  -8.5126  -8.4333
    -5.3230  -5.3213  -5.3070  -5.2393  -5.2220  -5.2154  -5.2096  -5.1918
    -5.1857  -5.1732  -5.1299  -5.1174  -5.1111  -5.1066  -5.1038  -5.0230
    -5.0165  -4.9899  -4.9720  -4.9655  -4.9392  -4.8709  -4.8617  -4.8416
    -4.1880  -3.9715  -3.8980  -3.7565  -3.6623  -3.4382  -3.4026  -3.1559
    -0.6968  -0.5848  -0.5276  -0.3426  -0.2818  -0.2371  -0.2165  -0.1285
    -0.0577   0.0426   0.0961   0.1845   0.3295   0.3798   0.4288   0.4445
     0.4846   0.5283   0.5617   0.6080   0.6240   0.6953   0.6979   0.7373
     0.8347   0.8781   0.8931   0.9692   0.9789   0.9946   1.0334   1.0866
     1.0981   1.1537   1.1956   1.2307   1.2504   1.2850   1.3092   1.3484
     1.3816   1.4124   1.4224   1.4631   1.4939   1.5271   1.5574   1.5783
     1.6085   1.6266   1.6587   1.6675   1.6937   1.7194   1.7404   1.7758
     1.8069   1.8431   1.8521   1.8846   1.9277   1.9942   2.0030   2.0463
     2.0841   2.1256   2.1622   2.2201   2.3828   2.4140   2.5509   2.6862

          k =-0.3750 0.1250 0.3750 (132616 PWs)   bands (ev):

   -18.5471 -18.4630 -18.4601 -18.4532 -18.4482 -18.4410 -18.4366 -18.4022
   -18.3991 -18.3940 -18.3877 -18.3844 -18.3840 -18.3806 -18.3744 -18.3718
   -18.3664 -18.3619 -18.3604 -18.3546 -18.3468 -18.3442 -18.3369 -18.3313
   -18.3245 -18.3236 -18.3193 -18.3091 -18.3027 -18.2884 -18.2219 -18.1842
   -18.1777 -18.1681 -18.1639 -18.1538 -18.1437 -18.0697 -18.0623 -18.0620
   -18.0536 -18.0507 -18.0454 -18.0424 -18.0423 -18.0377 -18.0368 -18.0275
    -9.4805  -9.3720  -9.3311  -9.2984  -9.2136  -9.1913  -9.1174  -9.0746
    -9.0551  -8.9805  -8.9665  -8.9377  -8.9017  -8.8620  -8.7936  -8.7535
    -8.7246  -8.7032  -8.6504  -8.6384  -8.5889  -8.5660  -8.5120  -8.4333
    -5.3230  -5.3213  -5.3071  -5.2394  -5.2220  -5.2153  -5.2096  -5.1918
    -5.1855  -5.1734  -5.1295  -5.1180  -5.1112  -5.1064  -5.1036  -5.0229
    -5.0166  -4.9899  -4.9720  -4.9655  -4.9393  -4.8709  -4.8617  -4.8416
    -4.1858  -3.9813  -3.8869  -3.7678  -3.6494  -3.4582  -3.3836  -3.1603
    -0.6882  -0.5804  -0.5294  -0.3308  -0.3050  -0.2537  -0.2223  -0.1272
    -0.0229   0.0270   0.0973   0.1923   0.3067   0.3737   0.4250   0.4634
     0.4917   0.5208   0.5692   0.6122   0.6389   0.6670   0.7173   0.7369
     0.8220   0.8451   0.9159   0.9592   0.9801   1.0177   1.0538   1.0761
     1.1190   1.1680   1.1885   1.2215   1.2357   1.2741   1.3127   1.3290
     1.3788   1.3944   1.4190   1.4637   1.5138   1.5401   1.5601   1.5746
     1.5924   1.6366   1.6579   1.6719   1.6937   1.7185   1.7514   1.7737
     1.8141   1.8446   1.8615   1.8762   1.9099   1.9868   2.0137   2.0525
     2.0877   2.1276   2.1781   2.2074   2.3763   2.4185   2.5325   2.6929

          k = 0.3750-0.3750 0.1250 (132616 PWs)   bands (ev):

   -18.5471 -18.4630 -18.4601 -18.4532 -18.4482 -18.4410 -18.4366 -18.4022
   -18.3991 -18.3940 -18.3877 -18.3844 -18.3840 -18.3806 -18.3744 -18.3718
   -18.3664 -18.3619 -18.3604 -18.3546 -18.3468 -18.3442 -18.3369 -18.3313
   -18.3245 -18.3236 -18.3193 -18.3091 -18.3027 -18.2884 -18.2219 -18.1842
   -18.1777 -18.1681 -18.1639 -18.1538 -18.1437 -18.0697 -18.0623 -18.0620
   -18.0536 -18.0507 -18.0454 -18.0424 -18.0423 -18.0377 -18.0368 -18.0275
    -9.4633  -9.4134  -9.3249  -9.2825  -9.2134  -9.1732  -9.1170  -9.1045
    -9.0511  -8.9757  -8.9496  -8.9385  -8.8967  -8.8653  -8.8013  -8.7570
    -8.7404  -8.6995  -8.6681  -8.6170  -8.5854  -8.5579  -8.5114  -8.4390
    -5.3231  -5.3213  -5.3084  -5.2386  -5.2222  -5.2144  -5.2101  -5.1925
    -5.1855  -5.1736  -5.1287  -5.1182  -5.1106  -5.1066  -5.1034  -5.0231
    -5.0168  -4.9900  -4.9723  -4.9659  -4.9405  -4.8710  -4.8594  -4.8414
    -4.1832  -4.0038  -3.9501  -3.7433  -3.6288  -3.4460  -3.3284  -3.1430
    -0.6598  -0.5780  -0.5556  -0.4681  -0.3691  -0.2896  -0.2465  -0.1416
    -0.1029   0.0030   0.1127   0.1990   0.3071   0.3610   0.4010   0.4633
     0.5205   0.5512   0.6007   0.6586   0.6911   0.7289   0.7544   0.7889
     0.8553   0.8908   0.9346   0.9575   0.9919   0.9999   1.0325   1.0804
     1.0977   1.1188   1.1633   1.1971   1.2525   1.2736   1.3154   1.3488
     1.4150   1.4364   1.4393   1.4767   1.5018   1.5194   1.5404   1.5602
     1.5771   1.5956   1.6148   1.6626   1.6751   1.7321   1.7643   1.8007
     1.8420   1.8488   1.8850   1.9134   1.9533   1.9931   2.0151   2.0751
     2.1283   2.1361   2.1853   2.2406   2.2793   2.4910   2.5653   2.6714

          k =-0.3750-0.3750-0.1250 (132616 PWs)   bands (ev):

   -18.5471 -18.4630 -18.4601 -18.4532 -18.4482 -18.4410 -18.4366 -18.4022
   -18.3991 -18.3940 -18.3877 -18.3844 -18.3840 -18.3806 -18.3744 -18.3718
   -18.3664 -18.3619 -18.3604 -18.3546 -18.3468 -18.3442 -18.3369 -18.3313
   -18.3245 -18.3236 -18.3193 -18.3091 -18.3027 -18.2884 -18.2219 -18.1842
   -18.1777 -18.1681 -18.1639 -18.1538 -18.1437 -18.0697 -18.0623 -18.0620
   -18.0536 -18.0507 -18.0454 -18.0424 -18.0423 -18.0377 -18.0368 -18.0275
    -9.4629  -9.4143  -9.3247  -9.2829  -9.2110  -9.1748  -9.1212  -9.0961
    -9.0575  -8.9748  -8.9502  -8.9348  -8.8966  -8.8680  -8.8027  -8.7598
    -8.7354  -8.6996  -8.6656  -8.6198  -8.5858  -8.5579  -8.5109  -8.4389
    -5.3231  -5.3213  -5.3084  -5.2386  -5.2223  -5.2144  -5.2100  -5.1925
    -5.1855  -5.1738  -5.1281  -5.1189  -5.1108  -5.1066  -5.1032  -5.0231
    -5.0169  -4.9900  -4.9723  -4.9658  -4.9405  -4.8710  -4.8594  -4.8415
    -4.1847  -3.9999  -3.9469  -3.7662  -3.6079  -3.4269  -3.3548  -3.1398
    -0.6385  -0.5974  -0.5439  -0.4752  -0.3729  -0.2632  -0.2512  -0.1666
    -0.0720  -0.0076   0.0597   0.1994   0.2398   0.3724   0.4465   0.5053
     0.5469   0.5697   0.5840   0.6685   0.6966   0.7437   0.7619   0.7928
     0.8108   0.8979   0.9057   0.9556   0.9690   1.0072   1.0269   1.0832
     1.1118   1.1362   1.1715   1.1906   1.2290   1.2732   1.3334   1.3647
     1.4086   1.4386   1.4466   1.4674   1.4837   1.5152   1.5274   1.5567
     1.5758   1.5860   1.6162   1.6828   1.6920   1.7427   1.7774   1.8145
     1.8359   1.8509   1.8814   1.9034   1.9414   1.9659   2.0197   2.0648
     2.1208   2.1478   2.1791   2.2384   2.3002   2.4748   2.5858   2.6676

          k = 0.3750 0.3750-0.1250 (132616 PWs)   bands (ev):

   -18.5471 -18.4630 -18.4601 -18.4532 -18.4482 -18.4410 -18.4366 -18.4022
   -18.3991 -18.3940 -18.3877 -18.3844 -18.3840 -18.3806 -18.3744 -18.3718
   -18.3664 -18.3619 -18.3604 -18.3546 -18.3468 -18.3442 -18.3369 -18.3313
   -18.3245 -18.3236 -18.3193 -18.3091 -18.3027 -18.2884 -18.2219 -18.1842
   -18.1777 -18.1681 -18.1639 -18.1538 -18.1437 -18.0697 -18.0623 -18.0620
   -18.0536 -18.0507 -18.0454 -18.0424 -18.0423 -18.0377 -18.0368 -18.0275
    -9.4628  -9.4145  -9.3238  -9.2849  -9.2099  -9.1759  -9.1119  -9.1031
    -9.0576  -8.9759  -8.9528  -8.9360  -8.8971  -8.8636  -8.7995  -8.7588
    -8.7393  -8.7012  -8.6659  -8.6184  -8.5845  -8.5592  -8.5108  -8.4389
    -5.3231  -5.3213  -5.3085  -5.2387  -5.2222  -5.2144  -5.2100  -5.1925
    -5.1855  -5.1736  -5.1286  -5.1182  -5.1106  -5.1066  -5.1034  -5.0232
    -5.0168  -4.9900  -4.9723  -4.9658  -4.9405  -4.8710  -4.8594  -4.8414
    -4.1852  -3.9975  -3.9516  -3.7529  -3.6246  -3.4206  -3.3567  -3.1378
    -0.6575  -0.5872  -0.5592  -0.4515  -0.3738  -0.2704  -0.2277  -0.1829
    -0.0580  -0.0089   0.0562   0.1989   0.2394   0.3556   0.4479   0.5178
     0.5454   0.5507   0.6153   0.6600   0.6853   0.7319   0.7813   0.7937
     0.8122   0.8908   0.9130   0.9480   0.9762   1.0017   1.0342   1.0795
     1.1113   1.1320   1.1454   1.2117   1.2285   1.2814   1.3394   1.3569
     1.3799   1.4087   1.4529   1.4779   1.4901   1.5335   1.5481   1.5664
     1.5791   1.6126   1.6334   1.6540   1.7038   1.7227   1.7593   1.7994
     1.8375   1.8538   1.8720   1.8889   1.9443   1.9922   2.0283   2.0608
     2.1313   2.1466   2.1693   2.2270   2.3095   2.4624   2.6007   2.6636

          k =-0.3750 0.3750 0.1250 (132616 PWs)   bands (ev):

   -18.5471 -18.4630 -18.4601 -18.4532 -18.4482 -18.4410 -18.4366 -18.4022
   -18.3991 -18.3940 -18.3877 -18.3844 -18.3840 -18.3806 -18.3744 -18.3718
   -18.3664 -18.3619 -18.3604 -18.3546 -18.3468 -18.3442 -18.3369 -18.3313
   -18.3245 -18.3236 -18.3193 -18.3091 -18.3027 -18.2884 -18.2219 -18.1842
   -18.1777 -18.1681 -18.1639 -18.1538 -18.1437 -18.0697 -18.0623 -18.0620
   -18.0536 -18.0507 -18.0454 -18.0424 -18.0423 -18.0377 -18.0368 -18.0275
    -9.4633  -9.4133  -9.3255  -9.2831  -9.2139  -9.1697  -9.1217  -9.0932
    -9.0616  -8.9756  -8.9496  -8.9370  -8.8971  -8.8647  -8.8002  -8.7614
    -8.7358  -8.7026  -8.6641  -8.6193  -8.5855  -8.5578  -8.5112  -8.4389
    -5.3231  -5.3213  -5.3085  -5.2387  -5.2222  -5.2144  -5.2101  -5.1925
    -5.1854  -5.1737  -5.1282  -5.1189  -5.1107  -5.1065  -5.1032  -5.0231
    -5.0169  -4.9900  -4.9723  -4.9659  -4.9406  -4.8710  -4.8594  -4.8415
    -4.1818  -4.0058  -3.9484  -3.7548  -3.6130  -3.4496  -3.3278  -3.1457
    -0.6300  -0.5926  -0.5520  -0.4831  -0.3774  -0.3035  -0.2380  -0.1388
    -0.0991   0.0077   0.1140   0.1971   0.3079   0.3675   0.3834   0.4578
     0.5233   0.5635   0.5909   0.6581   0.6972   0.7316   0.7597   0.8020
     0.8489   0.8813   0.9175   0.9526   0.9827   1.0137   1.0513   1.0876
     1.1123   1.1209   1.1489   1.2267   1.2321   1.2761   1.3180   1.3531
     1.3757   1.4115   1.4408   1.4648   1.4915   1.5194   1.5453   1.5577
     1.5889   1.6020   1.6402   1.6604   1.7092   1.7329   1.7716   1.7864
     1.8239   1.8559   1.8735   1.9246   1.9434   1.9919   2.0276   2.0852
     2.1217   2.1509   2.1662   2.2353   2.2864   2.4850   2.5641   2.6679

          k =-0.3750-0.3750 0.3750 (132612 PWs)   bands (ev):

   -18.5471 -18.4630 -18.4601 -18.4532 -18.4482 -18.4410 -18.4366 -18.4022
   -18.3991 -18.3940 -18.3877 -18.3844 -18.3840 -18.3806 -18.3744 -18.3718
   -18.3664 -18.3619 -18.3604 -18.3546 -18.3468 -18.3442 -18.3369 -18.3313
   -18.3245 -18.3236 -18.3193 -18.3091 -18.3027 -18.2884 -18.2219 -18.1842
   -18.1777 -18.1681 -18.1639 -18.1538 -18.1437 -18.0697 -18.0623 -18.0620
   -18.0536 -18.0507 -18.0454 -18.0424 -18.0423 -18.0377 -18.0368 -18.0275
    -9.4584  -9.4073  -9.3241  -9.2973  -9.2096  -9.1742  -9.1194  -9.0984
    -9.0621  -8.9784  -8.9568  -8.9355  -8.9067  -8.8592  -8.7913  -8.7464
    -8.7377  -8.6990  -8.6614  -8.6181  -8.5896  -8.5638  -8.5125  -8.4392
    -5.3230  -5.3213  -5.3071  -5.2394  -5.2223  -5.2154  -5.2100  -5.1924
    -5.1853  -5.1736  -5.1296  -5.1167  -5.1111  -5.1065  -5.1035  -5.0231
    -5.0167  -4.9900  -4.9720  -4.9652  -4.9395  -4.8709  -4.8608  -4.8417
    -4.0776  -3.9043  -3.8632  -3.7700  -3.6336  -3.5645  -3.5183  -3.3182
    -0.4844  -0.4191  -0.3441  -0.2381  -0.2135  -0.1777  -0.1281  -0.0597
     0.0086   0.0522   0.0638   0.1797   0.2584   0.3093   0.3779   0.4195
     0.4686   0.4981   0.5757   0.6077   0.6239   0.6547   0.6867   0.7546
     0.8350   0.8705   0.8883   0.9378   0.9652   0.9811   1.0244   1.0421
     1.0679   1.1109   1.1278   1.1486   1.2102   1.2306   1.2525   1.2946
     1.3347   1.3819   1.4285   1.4507   1.4926   1.5221   1.5522   1.5774
     1.5941   1.6279   1.6639   1.7006   1.7251   1.7513   1.7755   1.8079
     1.8236   1.8392   1.8600   1.8867   1.9268   1.9525   1.9921   2.0197
     2.0976   2.1143   2.1391   2.1503   2.1935   2.2794   2.3720   2.4246

          k =-0.3750 0.3750-0.3750 (132612 PWs)   bands (ev):

   -18.5471 -18.4630 -18.4601 -18.4532 -18.4482 -18.4410 -18.4366 -18.4022
   -18.3991 -18.3940 -18.3877 -18.3844 -18.3840 -18.3806 -18.3744 -18.3718
   -18.3664 -18.3619 -18.3604 -18.3546 -18.3468 -18.3442 -18.3369 -18.3313
   -18.3245 -18.3236 -18.3193 -18.3091 -18.3027 -18.2884 -18.2219 -18.1842
   -18.1777 -18.1681 -18.1639 -18.1538 -18.1437 -18.0697 -18.0623 -18.0620
   -18.0536 -18.0507 -18.0454 -18.0424 -18.0423 -18.0377 -18.0368 -18.0275
    -9.4589  -9.4064  -9.3243  -9.2964  -9.2107  -9.1752  -9.1190  -9.1043
    -9.0541  -8.9761  -8.9586  -8.9366  -8.9055  -8.8614  -8.7921  -8.7473
    -8.7363  -8.6970  -8.6642  -8.6170  -8.5889  -8.5640  -8.5127  -8.4392
    -5.3230  -5.3213  -5.3070  -5.2394  -5.2224  -5.2153  -5.2101  -5.1923
    -5.1853  -5.1736  -5.1297  -5.1167  -5.1111  -5.1065  -5.1036  -5.0230
    -5.0167  -4.9900  -4.9719  -4.9653  -4.9394  -4.8709  -4.8609  -4.8417
    -4.0765  -3.9048  -3.8569  -3.7775  -3.6332  -3.5934  -3.4804  -3.3268
    -0.4820  -0.4048  -0.3619  -0.2522  -0.2249  -0.1681  -0.1157  -0.0957
    -0.0019   0.0470   0.1373   0.1929   0.3077   0.3257   0.3490   0.4117
     0.4303   0.5035   0.5584   0.5883   0.6154   0.6575   0.6982   0.7352
     0.8320   0.8651   0.9127   0.9338   0.9513   0.9825   1.0059   1.0529
     1.0697   1.1091   1.1418   1.1834   1.2050   1.2141   1.2449   1.2919
     1.3415   1.4054   1.4344   1.4480   1.4863   1.5223   1.5472   1.5636
     1.5942   1.6354   1.6548   1.6928   1.7358   1.7541   1.7629   1.7859
     1.8014   1.8503   1.8701   1.9137   1.9353   1.9637   1.9933   2.0323
     2.0770   2.1044   2.1447   2.1661   2.2048   2.2899   2.3503   2.4114

          k = 0.3750-0.3750-0.3750 (132612 PWs)   bands (ev):

   -18.5471 -18.4630 -18.4601 -18.4532 -18.4482 -18.4410 -18.4366 -18.4022
   -18.3991 -18.3940 -18.3877 -18.3844 -18.3840 -18.3806 -18.3744 -18.3718
   -18.3664 -18.3619 -18.3604 -18.3546 -18.3468 -18.3442 -18.3369 -18.3313
   -18.3245 -18.3236 -18.3193 -18.3091 -18.3027 -18.2884 -18.2219 -18.1842
   -18.1777 -18.1681 -18.1639 -18.1538 -18.1437 -18.0697 -18.0623 -18.0620
   -18.0536 -18.0507 -18.0454 -18.0424 -18.0423 -18.0377 -18.0368 -18.0275
    -9.4589  -9.4063  -9.3250  -9.2967  -9.2117  -9.1714  -9.1228  -9.0938
    -9.0649  -8.9756  -8.9545  -8.9412  -8.9044  -8.8604  -8.7913  -8.7518
    -8.7317  -8.7004  -8.6588  -8.6204  -8.5890  -8.5637  -8.5125  -8.4392
    -5.3230  -5.3213  -5.3071  -5.2394  -5.2223  -5.2153  -5.2101  -5.1923
    -5.1852  -5.1738  -5.1293  -5.1172  -5.1113  -5.1063  -5.1033  -5.0230
    -5.0167  -4.9900  -4.9719  -4.9652  -4.9395  -4.8709  -4.8608  -4.8417
    -4.0724  -3.9138  -3.8603  -3.7689  -3.6459  -3.5742  -3.4815  -3.3328
    -0.4448  -0.4022  -0.3668  -0.2990  -0.2263  -0.1891  -0.1159  -0.0685
    -0.0151   0.0796   0.1292   0.1813   0.3186   0.3259   0.3581   0.3867
     0.4403   0.4840   0.5651   0.5830   0.6444   0.6541   0.6938   0.7449
     0.8134   0.8821   0.9036   0.9289   0.9539   1.0030   1.0259   1.0426
     1.0632   1.1140   1.1418   1.1535   1.2077   1.2266   1.2483   1.2954
     1.3193   1.3912   1.4276   1.4464   1.4767   1.5220   1.5525   1.5765
     1.6024   1.6337   1.6675   1.7021   1.7240   1.7449   1.7526   1.7982
     1.8378   1.8453   1.8654   1.9073   1.9432   1.9613   1.9858   2.0389
     2.0782   2.1051   2.1388   2.1643   2.2021   2.2814   2.3647   2.3974

     highest occupied level (ev):     3.1355

!    total energy              =   -2256.24942073 Ry
     estimated scf accuracy    <          2.4E-11 Ry

     The total energy is the sum of the following terms:
     one-electron contribution =    -980.19197348 Ry
     hartree contribution      =     618.11302803 Ry
     xc contribution           =    -647.48335071 Ry
     ewald contribution        =   -1246.68712457 Ry

     convergence has been achieved in  16 iterations

     Forces acting on atoms (cartesian axes, Ry/au):

     atom    1 type  1   force =     0.01714481   -0.00377368   -0.02446048
     atom    2 type  2   force =     0.00299769    0.03867909    0.00177369
     atom    3 type  3   force =    -0.00252077   -0.00121427    0.00264892
     atom    4 type  3   force =     0.00156748    0.00193393   -0.00952948
     atom    5 type  3   force =    -0.00182744    0.01802289    0.00075996
     atom    6 type  1   force =     0.01256525   -0.00247790    0.01651096
     atom    7 type  2   force =    -0.02040427    0.00446001    0.00271494
     atom    8 type  3   force =     0.02465409   -0.00452098    0.00004955
     atom    9 type  3   force =     0.00215891   -0.00881723    0.00336549
     atom   10 type  3   force =    -0.02919053   -0.00451438    0.00766534
     atom   11 type  1   force =     0.00565856    0.00646745   -0.00148026
     atom   12 type  2   force =    -0.00408166   -0.02135022    0.00398886
     atom   13 type  3   force =    -0.02363771    0.00557229   -0.00242930
     atom   14 type  3   force =    -0.00996160   -0.00826022    0.00742861
     atom   15 type  3   force =    -0.00827538   -0.04335378   -0.00560254
     atom   16 type  1   force =     0.00398066    0.01539760    0.01926933
     atom   17 type  2   force =    -0.01124693   -0.00564189   -0.00449160
     atom   18 type  3   force =    -0.00628333   -0.01439970   -0.01630651
     atom   19 type  3   force =     0.00815845    0.00109861    0.00079891
     atom   20 type  3   force =     0.01863336    0.00690865   -0.01562917
     atom   21 type  1   force =    -0.00367313   -0.00026709   -0.00551582
     atom   22 type  2   force =     0.00110153    0.00741425    0.00071265
     atom   23 type  3   force =     0.00635567   -0.00836515   -0.00390287
     atom   24 type  3   force =    -0.00078019   -0.00423841   -0.00246681
     atom   25 type  3   force =    -0.00356233    0.00492313   -0.00124034
     atom   26 type  1   force =    -0.00820926    0.00639399    0.00416748
     atom   27 type  2   force =     0.00573613    0.00959785   -0.00432636
     atom   28 type  3   force =    -0.00909791   -0.00858111    0.00454683
     atom   29 type  3   force =     0.00483723   -0.00164198   -0.00105798
     atom   30 type  3   force =    -0.01028185   -0.00576674    0.00789103
     atom   31 type  1   force =    -0.00343971    0.00187282   -0.00242944
     atom   32 type  2   force =     0.02835141   -0.00296191   -0.00649095
     atom   33 type  3   force =     0.01890188    0.00749520    0.00846149
     atom   34 type  3   force =    -0.00155298    0.00730101   -0.00192674
     atom   35 type  3   force =    -0.00494119    0.00201128    0.00230722
     atom   36 type  1   force =    -0.01719020    0.00030770    0.01799322
     atom   37 type  2   force =     0.01336924   -0.01042037    0.01145072
     atom   38 type  3   force =     0.00434073    0.00827932   -0.01010978
     atom   39 type  3   force =    -0.00525907   -0.00012167   -0.00468132
     atom   40 type  3   force =     0.00490435    0.00655160   -0.00042743

     Total force =     0.120568     Total SCF correction =     0.000018


     Computing stress (Cartesian axis) and pressure

          total   stress  (Ry/bohr**3)                   (kbar)     P=       -6.95
  -0.00004740  -0.00000472  -0.00000462           -6.97       -0.69       -0.68
  -0.00000472  -0.00005607   0.00000835           -0.69       -8.25        1.23
  -0.00000462   0.00000835  -0.00003820           -0.68        1.23       -5.62

 
     init_run     :     20.10s CPU     17.27s WALL (       1 calls)
     electrons    :    212.08s CPU    223.84s WALL (       1 calls)
     forces       :      8.87s CPU      3.94s WALL (       1 calls)
     stress       :     28.96s CPU     30.82s WALL (       1 calls)

     Called by init_run:
     wfcinit      :     12.19s CPU     14.21s WALL (       1 calls)
                                       14.21s GPU  (       1 calls)
     potinit      :      4.62s CPU      1.40s WALL (       1 calls)
     hinit0       :      2.72s CPU      0.99s WALL (       1 calls)

     Called by electrons:
     c_bands      :    125.43s CPU    178.37s WALL (      17 calls)
     sum_band     :     23.06s CPU     22.34s WALL (      17 calls)
                                       22.34s GPU  (      17 calls)
     v_of_rho     :     58.57s CPU     17.77s WALL (      17 calls)
     mix_rho      :      7.17s CPU      5.61s WALL (      17 calls)

     Called by c_bands:
     init_us_2    :      2.77s CPU      3.47s WALL (     296 calls)
                                        3.47s GPU  (     296 calls)
     cegterg      :     83.35s CPU    133.31s WALL (     136 calls)

     Called by *egterg:
     cdiaghg      :     14.07s CPU     26.17s WALL (     668 calls)
                                       26.13s GPU  (     668 calls)
     h_psi        :     56.58s CPU     77.45s WALL (     684 calls)
                                       76.99s GPU  (     684 calls)
     g_psi        :      0.00s CPU      0.39s WALL (     540 calls)
                                        0.38s GPU  (     540 calls)

     Called by h_psi:
     h_psi:calbec :      0.32s CPU     10.38s WALL (     684 calls)
                                       10.37s GPU  (     684 calls)
     vloc_psi     :     41.45s CPU     56.66s WALL (     684 calls)
                                       55.70s GPU  (     684 calls)
     add_vuspsi   :      0.36s CPU     10.33s WALL (     684 calls)
                                       10.32s GPU  (     684 calls)

     General routines
     calbec       :      0.32s CPU      0.40s WALL (     724 calls)
     fft          :     27.05s CPU      6.92s WALL (     195 calls)
                                        0.01s GPU  (       6 calls)
     ffts         :      2.74s CPU      0.72s WALL (      17 calls)
     fftw         :      0.61s CPU     65.79s WALL (   11006 calls)
                                       49.14s GPU  (   11006 calls)
 
     Parallel routines
 
     PWSCF        :   4m30.67s CPU   4m36.62s WALL

 
   This run was terminated on:  20:53:15  22Apr2021            

=------------------------------------------------------------------------------=
   JOB DONE.
=------------------------------------------------------------------------------=
