
     Program PWSCF v.6.7MaX starts on 23Apr2021 at  0:15:18 

     This program is part of the open-source Quantum ESPRESSO suite
     for quantum simulation of materials; please cite
         "P. Giannozzi et al., J. Phys.:Condens. Matter 21 395502 (2009);
         "P. Giannozzi et al., J. Phys.:Condens. Matter 29 465901 (2017);
         "P. Giannozzi et al., J. Chem. Phys. 152 154105 (2020);
          URL http://www.quantum-espresso.org", 
     in publications or presentations arising from this work. More details at
     http://www.quantum-espresso.org/quote

     Parallel version (MPI & OpenMP), running on      16 processor cores
     Number of MPI processes:                 4
     Threads/MPI process:                     4

     MPI processes distributed on     1 nodes
     K-points division:     npool     =       4
     Reading input from ESP_76.pwi
Warning: card &CELL ignored
Warning: card / ignored

     Current dimensions of program PWSCF are:
     Max number of different atomic species (ntypx) = 10
     Max number of k-points (npk) =  40000
     Max angular momentum in pseudopotentials (lmaxx) =  3
     Message from routine read_pp_mesh:
     mesh size missing, using the one in header
     Message from routine read_pp_mesh:
     mesh size missing, using the one in header
     Message from routine read_pp_mesh:
     mesh size missing, using the one in header

     Subspace diagonalization in iterative solution of the eigenvalue problem:
     a serial algorithm will be used

 
     G-vector sticks info
     --------------------
     sticks:   dense  smooth     PW     G-vecs:    dense   smooth      PW
     Sum       12589   12589   3289              1061107  1061107  140905
 
     Using Slab Decomposition
 


     bravais-lattice index     =            0
     lattice parameter (alat)  =      23.7585  a.u.
     unit-cell volume          =   13410.8736 (a.u.)^3
     number of atoms/cell      =           40
     number of atomic types    =            3
     number of electrons       =       352.00
     number of Kohn-Sham states=          176
     kinetic-energy cutoff     =      70.0000  Ry
     charge density cutoff     =     280.0000  Ry
     scf convergence threshold =      1.0E-10
     mixing beta               =       0.7000
     number of iterations used =            8  plain     mixing
     Exchange-correlation= PBESOL
                           (   1   4  10   8   0   0   0)

     GPU acceleration is ACTIVE.


     celldm(1)=  23.758500  celldm(2)=   0.000000  celldm(3)=   0.000000
     celldm(4)=   0.000000  celldm(5)=   0.000000  celldm(6)=   0.000000

     crystal axes: (cart. coord. in units of alat)
               a(1) = (   1.000000   0.000000   0.000000 )  
               a(2) = (   0.000000   1.000000   0.000000 )  
               a(3) = (   0.000000   0.000000   1.000000 )  

     reciprocal axes: (cart. coord. in units 2 pi/alat)
               b(1) = (  1.000000  0.000000  0.000000 )  
               b(2) = (  0.000000  1.000000  0.000000 )  
               b(3) = (  0.000000  0.000000  1.000000 )  


     PseudoPot. # 1 for Cs read from file:
     /m100/home/userexternal/lmonacel/espresso/pseudo/Cs-nc-pbesol.upf
     MD5 check sum: 9d2f2206a14dc5b3b3f3fbfae186bed4
     Pseudo is Norm-conserving + core correction, Zval =  9.0
     Generated using ONCVPSP code by D. R. Hamann
     Using radial grid of 2384 points,  8 beta functions with: 
                l(1) =   0
                l(2) =   0
                l(3) =   1
                l(4) =   1
                l(5) =   2
                l(6) =   2
                l(7) =   3
                l(8) =   3

     PseudoPot. # 2 for Sn read from file:
     /m100/home/userexternal/lmonacel/espresso/pseudo/Sn-nc-pbesol.upf
     MD5 check sum: c2995d571af40102bfea7461443d92cf
     Pseudo is Norm-conserving + core correction, Zval = 14.0
     Generated using ONCVPSP code by D. R. Hamann
     Using radial grid of 1628 points,  6 beta functions with: 
                l(1) =   0
                l(2) =   0
                l(3) =   1
                l(4) =   1
                l(5) =   2
                l(6) =   2

     PseudoPot. # 3 for I  read from file:
     /m100/home/userexternal/lmonacel/espresso/pseudo/I-nc-pbesol.upf
     MD5 check sum: 80ed5ceb2eb9c553cfb6760a299d9c5b
     Pseudo is Norm-conserving + core correction, Zval =  7.0
     Generated using ONCVPSP code by D. R. Hamann
     Using radial grid of 1182 points,  6 beta functions with: 
                l(1) =   0
                l(2) =   0
                l(3) =   1
                l(4) =   1
                l(5) =   2
                l(6) =   2

     atomic species   valence    mass     pseudopotential
        Cs             9.00   132.90545     Cs( 1.00)
        Sn            14.00   118.71000     Sn( 1.00)
        I              7.00   126.90447     I ( 1.00)

     No symmetry found



   Cartesian axes

     site n.     atom                  positions (alat units)
         1           Cs  tau(   1) = (   0.2418102   0.2502886   0.2549537  )
         2           Sn  tau(   2) = (   0.0078627   0.0094866   0.0089427  )
         3           I   tau(   3) = (   0.2391102  -0.0024417   0.0315649  )
         4           I   tau(   4) = (  -0.0358211   0.0095646   0.2629997  )
         5           I   tau(   5) = (  -0.0042878   0.2450710   0.0063966  )
         6           Cs  tau(   6) = (   0.2767007   0.2553498   0.7330931  )
         7           Sn  tau(   7) = (   0.0217026  -0.0270001   0.5235528  )
         8           I   tau(   8) = (   0.2582587   0.0120798   0.4958831  )
         9           I   tau(   9) = (   0.0085702  -0.0053820   0.7452268  )
        10           I   tau(  10) = (  -0.0122026   0.2465980   0.5324387  )
        11           Cs  tau(  11) = (   0.2327884   0.7574950   0.2496462  )
        12           Sn  tau(  12) = (  -0.0035850   0.5061763  -0.0037274  )
        13           I   tau(  13) = (   0.2394665   0.4819351   0.0067699  )
        14           I   tau(  14) = (  -0.0213796   0.5204792   0.2469333  )
        15           I   tau(  15) = (   0.0146939   0.7530156   0.0132202  )
        16           Cs  tau(  16) = (   0.2830211   0.7665974   0.7313844  )
        17           Sn  tau(  17) = (  -0.0063770   0.4856867   0.5029305  )
        18           I   tau(  18) = (   0.2508068   0.4816132   0.4607362  )
        19           I   tau(  19) = (   0.0226762   0.5190634   0.7392001  )
        20           I   tau(  20) = (   0.0086114   0.7419271   0.4835581  )
        21           Cs  tau(  21) = (   0.7863070   0.2614120   0.2476037  )
        22           Sn  tau(  22) = (   0.4918096   0.0317479  -0.0029289  )
        23           I   tau(  23) = (   0.7513479  -0.0168847   0.0257111  )
        24           I   tau(  24) = (   0.4698975  -0.0085716   0.2520013  )
        25           I   tau(  25) = (   0.4843286   0.2660828   0.0105031  )
        26           Cs  tau(  26) = (   0.7566724   0.2326714   0.7315916  )
        27           Sn  tau(  27) = (   0.5196443  -0.0086701   0.4980528  )
        28           I   tau(  28) = (   0.7515475  -0.0624401   0.5158395  )
        29           I   tau(  29) = (   0.4723381   0.0215446   0.7589432  )
        30           I   tau(  30) = (   0.5268394   0.2368553   0.5023447  )
        31           Cs  tau(  31) = (   0.7692269   0.7527649   0.2573233  )
        32           Sn  tau(  32) = (   0.4888719   0.5195600  -0.0162153  )
        33           I   tau(  33) = (   0.7412698   0.5216546  -0.0179324  )
        34           I   tau(  34) = (   0.4954069   0.4989978   0.2355327  )
        35           I   tau(  35) = (   0.5017912   0.7667409  -0.0141549  )
        36           Cs  tau(  36) = (   0.7589027   0.7431129   0.7787493  )
        37           Sn  tau(  37) = (   0.5098110   0.4937501   0.4664793  )
        38           I   tau(  38) = (   0.7513049   0.5195430   0.5181712  )
        39           I   tau(  39) = (   0.4820105   0.4915448   0.7403767  )
        40           I   tau(  40) = (   0.4651799   0.7307423   0.4855651  )

     number of k points=    32
                       cart. coord. in units 2pi/alat
        k(    1) = (   0.1250000   0.1250000   0.1250000), wk =   0.0625000
        k(    2) = (   0.1250000   0.1250000   0.3750000), wk =   0.0625000
        k(    3) = (   0.1250000   0.3750000   0.3750000), wk =   0.0625000
        k(    4) = (   0.3750000   0.3750000   0.3750000), wk =   0.0625000
        k(    5) = (  -0.1250000  -0.1250000   0.1250000), wk =   0.0625000
        k(    6) = (  -0.1250000   0.1250000  -0.1250000), wk =   0.0625000
        k(    7) = (   0.1250000  -0.1250000  -0.1250000), wk =   0.0625000
        k(    8) = (  -0.1250000  -0.1250000   0.3750000), wk =   0.0625000
        k(    9) = (  -0.1250000   0.1250000  -0.3750000), wk =   0.0625000
        k(   10) = (   0.1250000  -0.1250000  -0.3750000), wk =   0.0625000
        k(   11) = (   0.3750000  -0.1250000   0.1250000), wk =   0.0625000
        k(   12) = (  -0.3750000  -0.1250000  -0.1250000), wk =   0.0625000
        k(   13) = (   0.3750000   0.1250000  -0.1250000), wk =   0.0625000
        k(   14) = (  -0.3750000   0.1250000   0.1250000), wk =   0.0625000
        k(   15) = (  -0.1250000   0.3750000   0.1250000), wk =   0.0625000
        k(   16) = (  -0.1250000  -0.3750000  -0.1250000), wk =   0.0625000
        k(   17) = (   0.1250000   0.3750000  -0.1250000), wk =   0.0625000
        k(   18) = (   0.1250000  -0.3750000   0.1250000), wk =   0.0625000
        k(   19) = (  -0.1250000  -0.3750000   0.3750000), wk =   0.0625000
        k(   20) = (  -0.1250000   0.3750000  -0.3750000), wk =   0.0625000
        k(   21) = (   0.1250000  -0.3750000  -0.3750000), wk =   0.0625000
        k(   22) = (   0.3750000   0.1250000  -0.3750000), wk =   0.0625000
        k(   23) = (  -0.3750000  -0.1250000  -0.3750000), wk =   0.0625000
        k(   24) = (   0.3750000  -0.1250000   0.3750000), wk =   0.0625000
        k(   25) = (  -0.3750000   0.1250000   0.3750000), wk =   0.0625000
        k(   26) = (   0.3750000  -0.3750000   0.1250000), wk =   0.0625000
        k(   27) = (  -0.3750000  -0.3750000  -0.1250000), wk =   0.0625000
        k(   28) = (   0.3750000   0.3750000  -0.1250000), wk =   0.0625000
        k(   29) = (  -0.3750000   0.3750000   0.1250000), wk =   0.0625000
        k(   30) = (  -0.3750000  -0.3750000   0.3750000), wk =   0.0625000
        k(   31) = (  -0.3750000   0.3750000  -0.3750000), wk =   0.0625000
        k(   32) = (   0.3750000  -0.3750000  -0.3750000), wk =   0.0625000

     Dense  grid:  1061107 G-vectors     FFT dimensions: ( 128, 128, 128)

     Estimated max dynamical RAM per process >       6.82 GB

     Estimated total dynamical RAM >      27.27 GB

     Initial potential from superposition of free atoms

     starting charge  351.69472, renormalised to  352.00000
     Starting wfcs are  208 randomized atomic wfcs

     total cpu time spent up to now is       18.0 secs

     Self-consistent Calculation

     iteration #  1     ecut=    70.00 Ry     beta= 0.70
     Davidson diagonalization with overlap
     ethr =  1.00E-02,  avg # of iterations =  2.0

     Threshold (ethr) on eigenvalues was too large:
     Diagonalizing with lowered threshold

     Davidson diagonalization with overlap
     ethr =  2.17E-04,  avg # of iterations =  4.0

     total cpu time spent up to now is       39.0 secs

     total energy              =   -2256.03187651 Ry
     estimated scf accuracy    <       0.66269575 Ry

     iteration #  2     ecut=    70.00 Ry     beta= 0.70
     Davidson diagonalization with overlap
     ethr =  1.88E-04,  avg # of iterations =  3.3

     total cpu time spent up to now is       52.0 secs

     total energy              =   -2256.22751458 Ry
     estimated scf accuracy    <       0.34306394 Ry

     iteration #  3     ecut=    70.00 Ry     beta= 0.70
     Davidson diagonalization with overlap
     ethr =  9.75E-05,  avg # of iterations =  3.0

     total cpu time spent up to now is       64.0 secs

     total energy              =   -2256.29465342 Ry
     estimated scf accuracy    <       0.03137141 Ry

     iteration #  4     ecut=    70.00 Ry     beta= 0.70
     Davidson diagonalization with overlap
     ethr =  8.91E-06,  avg # of iterations =  4.2

     total cpu time spent up to now is       76.9 secs

     total energy              =   -2256.30468619 Ry
     estimated scf accuracy    <       0.00497679 Ry

     iteration #  5     ecut=    70.00 Ry     beta= 0.70
     Davidson diagonalization with overlap
     ethr =  1.41E-06,  avg # of iterations =  3.3

     total cpu time spent up to now is       89.3 secs

     total energy              =   -2256.30568583 Ry
     estimated scf accuracy    <       0.00133095 Ry

     iteration #  6     ecut=    70.00 Ry     beta= 0.70
     Davidson diagonalization with overlap
     ethr =  3.78E-07,  avg # of iterations =  3.1

     total cpu time spent up to now is      101.6 secs

     total energy              =   -2256.30592526 Ry
     estimated scf accuracy    <       0.00014264 Ry

     iteration #  7     ecut=    70.00 Ry     beta= 0.70
     Davidson diagonalization with overlap
     ethr =  4.05E-08,  avg # of iterations =  4.8

     total cpu time spent up to now is      115.8 secs

     total energy              =   -2256.30597701 Ry
     estimated scf accuracy    <       0.00002883 Ry

     iteration #  8     ecut=    70.00 Ry     beta= 0.70
     Davidson diagonalization with overlap
     ethr =  8.19E-09,  avg # of iterations =  3.5

     total cpu time spent up to now is      128.8 secs

     total energy              =   -2256.30598542 Ry
     estimated scf accuracy    <       0.00000418 Ry

     iteration #  9     ecut=    70.00 Ry     beta= 0.70
     Davidson diagonalization with overlap
     ethr =  1.19E-09,  avg # of iterations =  4.8

     total cpu time spent up to now is      143.2 secs

     total energy              =   -2256.30598727 Ry
     estimated scf accuracy    <       0.00000082 Ry

     iteration # 10     ecut=    70.00 Ry     beta= 0.70
     Davidson diagonalization with overlap
     ethr =  2.32E-10,  avg # of iterations =  5.1

     total cpu time spent up to now is      158.0 secs

     total energy              =   -2256.30598755 Ry
     estimated scf accuracy    <       0.00000026 Ry

     iteration # 11     ecut=    70.00 Ry     beta= 0.70
     Davidson diagonalization with overlap
     ethr =  7.42E-11,  avg # of iterations =  4.0

     total cpu time spent up to now is      171.5 secs

     total energy              =   -2256.30598763 Ry
     estimated scf accuracy    <       0.00000002 Ry

     iteration # 12     ecut=    70.00 Ry     beta= 0.70
     Davidson diagonalization with overlap
     ethr =  6.82E-12,  avg # of iterations =  5.4

     total cpu time spent up to now is      188.1 secs

     total energy              =   -2256.30598765 Ry
     estimated scf accuracy    <       0.00000001 Ry

     iteration # 13     ecut=    70.00 Ry     beta= 0.70
     Davidson diagonalization with overlap
     ethr =  3.70E-12,  avg # of iterations =  3.6

     total cpu time spent up to now is      201.0 secs

     total energy              =   -2256.30598765 Ry
     estimated scf accuracy    <          1.6E-09 Ry

     iteration # 14     ecut=    70.00 Ry     beta= 0.70
     Davidson diagonalization with overlap
     ethr =  4.48E-13,  avg # of iterations =  5.4

     total cpu time spent up to now is      216.7 secs

     total energy              =   -2256.30598765 Ry
     estimated scf accuracy    <          1.5E-10 Ry

     iteration # 15     ecut=    70.00 Ry     beta= 0.70
     Davidson diagonalization with overlap
     ethr =  1.00E-13,  avg # of iterations =  4.2

     total cpu time spent up to now is      230.2 secs

     End of self-consistent calculation

          k = 0.1250 0.1250 0.1250 (132670 PWs)   bands (ev):

   -18.5922 -18.4825 -18.4164 -18.3457 -18.3345 -18.3271 -18.2777 -18.2729
   -18.2715 -18.2671 -18.2613 -18.2598 -18.2576 -18.2558 -18.2512 -18.2472
   -18.2380 -18.2284 -18.2253 -18.2211 -18.2181 -18.2178 -18.2151 -18.2066
   -18.2060 -18.2049 -18.2047 -18.2003 -18.1997 -18.1978 -18.1934 -18.1903
   -18.1903 -18.1897 -18.1896 -18.1879 -18.1836 -18.1833 -18.1829 -18.1797
   -18.1779 -18.1743 -18.1714 -18.1696 -18.1690 -18.1685 -18.1603 -18.1488
    -9.4826  -9.3387  -9.2511  -9.2137  -9.1796  -9.0808  -9.0563  -9.0283
    -8.9807  -8.9680  -8.9447  -8.9286  -8.8933  -8.8572  -8.8473  -8.8067
    -8.7864  -8.7508  -8.6909  -8.6538  -8.6009  -8.5776  -8.5324  -8.4486
    -5.3575  -5.3505  -5.3436  -5.2552  -5.2526  -5.2331  -5.1906  -5.1899
    -5.1761  -5.1245  -5.1208  -5.1153  -5.1116  -5.1076  -5.1028  -5.0999
    -5.0866  -5.0851  -5.0049  -4.9877  -4.9827  -4.9724  -4.9671  -4.9610
    -4.4280  -3.9897  -3.8774  -3.8460  -3.4435  -3.3537  -3.2801  -2.7507
    -0.7634  -0.7059  -0.6597  -0.6080  -0.5599  -0.5056  -0.4785  -0.4480
    -0.3757  -0.2864  -0.2447  -0.1992   0.4210   0.4722   0.5281   0.6122
     0.6366   0.6470   0.7509   0.7716   0.8304   0.8707   0.9140   0.9699
     0.9883   1.0456   1.0846   1.0897   1.1117   1.1436   1.1798   1.2076
     1.2190   1.2474   1.2662   1.2863   1.2984   1.3266   1.3402   1.3689
     1.3957   1.4291   1.4663   1.4750   1.5019   1.5176   1.5409   1.5548
     1.5834   1.6117   1.6317   1.6333   1.6662   1.6811   1.7154   1.7328
     1.7433   1.7743   1.8730   1.9880   2.0198   2.0502   2.0672   2.1126
     2.1345   2.2140   2.2488   2.3356   2.6436   2.7150   2.8333   3.1569

          k = 0.1250 0.1250 0.3750 (132608 PWs)   bands (ev):

   -18.5922 -18.4825 -18.4164 -18.3457 -18.3345 -18.3271 -18.2777 -18.2729
   -18.2715 -18.2670 -18.2613 -18.2598 -18.2576 -18.2558 -18.2512 -18.2472
   -18.2380 -18.2284 -18.2253 -18.2211 -18.2181 -18.2178 -18.2151 -18.2066
   -18.2060 -18.2049 -18.2047 -18.2003 -18.1997 -18.1978 -18.1934 -18.1903
   -18.1903 -18.1897 -18.1896 -18.1879 -18.1836 -18.1833 -18.1829 -18.1797
   -18.1779 -18.1743 -18.1714 -18.1696 -18.1690 -18.1685 -18.1603 -18.1488
    -9.4745  -9.3371  -9.2514  -9.2234  -9.1814  -9.0927  -9.0681  -9.0128
    -8.9856  -8.9743  -8.9505  -8.9277  -8.8936  -8.8548  -8.8312  -8.7946
    -8.7758  -8.7557  -8.6881  -8.6481  -8.6075  -8.5859  -8.5348  -8.4497
    -5.3574  -5.3504  -5.3434  -5.2552  -5.2524  -5.2331  -5.1905  -5.1898
    -5.1759  -5.1245  -5.1206  -5.1152  -5.1119  -5.1076  -5.1027  -5.0995
    -5.0873  -5.0851  -5.0051  -4.9878  -4.9830  -4.9725  -4.9674  -4.9610
    -4.2969  -4.1098  -3.7918  -3.7227  -3.6089  -3.5180  -3.1841  -2.9592
    -0.7234  -0.6717  -0.6366  -0.6052  -0.4933  -0.4456  -0.4205  -0.3613
    -0.1106   0.0012   0.0294   0.0794   0.4368   0.4905   0.5039   0.5392
     0.5664   0.5956   0.6183   0.6818   0.7048   0.7224   0.7570   0.8272
     0.8430   0.9028   0.9965   1.0425   1.0890   1.1232   1.1404   1.1545
     1.2219   1.2458   1.2573   1.2930   1.3126   1.3370   1.3514   1.3628
     1.4042   1.4275   1.4653   1.4768   1.5094   1.5406   1.5658   1.5867
     1.6186   1.6358   1.6489   1.6707   1.7102   1.7186   1.7306   1.7473
     1.7989   1.8264   1.8713   1.8930   1.9406   1.9794   2.0083   2.0320
     2.1118   2.1243   2.2485   2.3163   2.4215   2.4738   2.7805   2.9287

          k = 0.1250 0.3750 0.3750 (132616 PWs)   bands (ev):

   -18.5922 -18.4825 -18.4164 -18.3457 -18.3345 -18.3271 -18.2777 -18.2729
   -18.2715 -18.2670 -18.2613 -18.2598 -18.2576 -18.2558 -18.2512 -18.2472
   -18.2380 -18.2284 -18.2253 -18.2211 -18.2181 -18.2178 -18.2151 -18.2066
   -18.2060 -18.2049 -18.2047 -18.2003 -18.1997 -18.1978 -18.1934 -18.1903
   -18.1903 -18.1897 -18.1896 -18.1879 -18.1836 -18.1833 -18.1829 -18.1797
   -18.1779 -18.1743 -18.1714 -18.1696 -18.1690 -18.1685 -18.1603 -18.1488
    -9.4686  -9.3192  -9.2712  -9.2106  -9.1949  -9.1210  -9.0767  -9.0243
    -8.9853  -8.9564  -8.9416  -8.9298  -8.8768  -8.8441  -8.8306  -8.7947
    -8.7795  -8.7522  -8.6811  -8.6486  -8.6127  -8.5925  -8.5364  -8.4507
    -5.3574  -5.3504  -5.3435  -5.2553  -5.2525  -5.2332  -5.1907  -5.1899
    -5.1762  -5.1241  -5.1200  -5.1151  -5.1117  -5.1076  -5.1035  -5.0992
    -5.0869  -5.0851  -5.0051  -4.9881  -4.9830  -4.9725  -4.9672  -4.9609
    -4.1607  -4.0500  -3.8624  -3.7544  -3.6236  -3.5038  -3.3026  -3.1728
    -0.6425  -0.5625  -0.5001  -0.4904  -0.3870  -0.2782  -0.1920  -0.1411
    -0.0591   0.0413   0.1299   0.2021   0.2975   0.3986   0.4627   0.4973
     0.5383   0.5545   0.6058   0.6311   0.6464   0.6917   0.7101   0.7314
     0.8265   0.8650   0.9261   0.9543   1.0009   1.0521   1.0656   1.1090
     1.1317   1.1745   1.2227   1.2519   1.2715   1.2903   1.3413   1.3578
     1.4039   1.4162   1.4642   1.4866   1.5198   1.5538   1.5886   1.6057
     1.6437   1.6769   1.6969   1.7146   1.7355   1.7375   1.7657   1.7945
     1.8213   1.8464   1.8717   1.8944   1.9150   1.9333   1.9665   1.9948
     2.0162   2.0651   2.0987   2.2007   2.3009   2.3855   2.5589   2.6782

          k = 0.3750 0.3750 0.3750 (132612 PWs)   bands (ev):

   -18.5922 -18.4825 -18.4164 -18.3457 -18.3345 -18.3271 -18.2777 -18.2729
   -18.2715 -18.2670 -18.2613 -18.2598 -18.2576 -18.2558 -18.2512 -18.2472
   -18.2380 -18.2284 -18.2253 -18.2211 -18.2181 -18.2178 -18.2151 -18.2066
   -18.2060 -18.2049 -18.2047 -18.2003 -18.1997 -18.1978 -18.1934 -18.1903
   -18.1903 -18.1897 -18.1896 -18.1879 -18.1836 -18.1833 -18.1829 -18.1797
   -18.1779 -18.1743 -18.1714 -18.1696 -18.1690 -18.1685 -18.1603 -18.1488
    -9.4651  -9.3075  -9.2739  -9.2160  -9.1927  -9.1177  -9.0955  -9.0464
    -9.0023  -8.9546  -8.9327  -8.9040  -8.8805  -8.8495  -8.8182  -8.7923
    -8.7676  -8.7520  -8.6846  -8.6515  -8.6050  -8.5964  -8.5390  -8.4544
    -5.3574  -5.3505  -5.3434  -5.2553  -5.2525  -5.2332  -5.1906  -5.1897
    -5.1763  -5.1243  -5.1202  -5.1152  -5.1129  -5.1062  -5.1032  -5.0993
    -5.0869  -5.0853  -5.0048  -4.9880  -4.9828  -4.9719  -4.9674  -4.9612
    -4.0388  -3.9790  -3.8111  -3.7579  -3.6663  -3.5800  -3.4355  -3.3581
    -0.4861  -0.3833  -0.3221  -0.2930  -0.2414  -0.1863  -0.1516  -0.1218
     0.0111   0.0645   0.1966   0.2487   0.2782   0.3652   0.3945   0.4552
     0.4770   0.5050   0.5444   0.5667   0.5771   0.6509   0.6714   0.7091
     0.8243   0.8738   0.9266   0.9530   0.9821   1.0140   1.0367   1.0654
     1.1068   1.1263   1.1587   1.1750   1.2163   1.2294   1.2716   1.2851
     1.4010   1.4236   1.4418   1.5052   1.5454   1.5641   1.6117   1.6280
     1.6720   1.6957   1.7267   1.7536   1.7648   1.7838   1.7968   1.8026
     1.8150   1.8568   1.8861   1.8991   1.9125   1.9387   1.9511   1.9720
     2.0056   2.0310   2.0503   2.0960   2.1338   2.1842   2.2566   2.4051

          k =-0.1250-0.1250 0.1250 (132670 PWs)   bands (ev):

   -18.5922 -18.4825 -18.4164 -18.3457 -18.3345 -18.3271 -18.2777 -18.2729
   -18.2715 -18.2671 -18.2613 -18.2598 -18.2576 -18.2558 -18.2512 -18.2472
   -18.2380 -18.2284 -18.2253 -18.2211 -18.2181 -18.2178 -18.2151 -18.2066
   -18.2060 -18.2049 -18.2047 -18.2003 -18.1997 -18.1978 -18.1934 -18.1903
   -18.1903 -18.1897 -18.1896 -18.1879 -18.1836 -18.1833 -18.1829 -18.1797
   -18.1779 -18.1743 -18.1714 -18.1696 -18.1690 -18.1685 -18.1603 -18.1488
    -9.4835  -9.3326  -9.2671  -9.2010  -9.1729  -9.0931  -9.0496  -9.0409
    -8.9779  -8.9625  -8.9475  -8.9274  -8.8888  -8.8563  -8.8443  -8.8110
    -8.7849  -8.7530  -8.6922  -8.6534  -8.6018  -8.5762  -8.5327  -8.4485
    -5.3575  -5.3505  -5.3436  -5.2551  -5.2527  -5.2331  -5.1906  -5.1899
    -5.1761  -5.1245  -5.1208  -5.1153  -5.1117  -5.1076  -5.1027  -5.1000
    -5.0866  -5.0850  -5.0049  -4.9877  -4.9827  -4.9725  -4.9670  -4.9611
    -4.4310  -3.9576  -3.9007  -3.8585  -3.3958  -3.3672  -3.3116  -2.7475
    -0.7590  -0.6852  -0.6633  -0.6034  -0.5567  -0.5226  -0.4732  -0.4249
    -0.3623  -0.3163  -0.2813  -0.2058   0.4236   0.4755   0.5272   0.6014
     0.6351   0.6637   0.7676   0.7759   0.8199   0.8672   0.9238   0.9546
     1.0045   1.0398   1.0599   1.0958   1.1151   1.1454   1.1742   1.2002
     1.2243   1.2481   1.2734   1.2865   1.3118   1.3346   1.3624   1.3881
     1.4105   1.4268   1.4576   1.4838   1.5021   1.5080   1.5341   1.5580
     1.5620   1.6008   1.6391   1.6464   1.6644   1.6706   1.6985   1.7346
     1.7435   1.7711   1.8606   1.9813   2.0140   2.0507   2.0741   2.1116
     2.1329   2.2126   2.2597   2.3449   2.6578   2.7432   2.7805   3.1356

          k =-0.1250 0.1250-0.1250 (132670 PWs)   bands (ev):

   -18.5922 -18.4825 -18.4164 -18.3457 -18.3345 -18.3271 -18.2777 -18.2729
   -18.2715 -18.2671 -18.2613 -18.2598 -18.2576 -18.2558 -18.2512 -18.2472
   -18.2380 -18.2284 -18.2253 -18.2211 -18.2181 -18.2178 -18.2151 -18.2066
   -18.2060 -18.2049 -18.2047 -18.2003 -18.1997 -18.1978 -18.1934 -18.1903
   -18.1903 -18.1897 -18.1896 -18.1879 -18.1836 -18.1833 -18.1829 -18.1797
   -18.1779 -18.1743 -18.1714 -18.1696 -18.1690 -18.1685 -18.1603 -18.1488
    -9.4834  -9.3342  -9.2629  -9.2018  -9.1790  -9.0803  -9.0649  -9.0333
    -8.9716  -8.9664  -8.9484  -8.9333  -8.8842  -8.8546  -8.8477  -8.8137
    -8.7801  -8.7535  -8.6934  -8.6540  -8.6003  -8.5767  -8.5328  -8.4486
    -5.3575  -5.3505  -5.3435  -5.2552  -5.2526  -5.2331  -5.1906  -5.1898
    -5.1761  -5.1247  -5.1203  -5.1154  -5.1121  -5.1078  -5.1023  -5.1000
    -5.0866  -5.0851  -5.0048  -4.9878  -4.9826  -4.9725  -4.9670  -4.9611
    -4.4302  -3.9666  -3.8920  -3.8576  -3.4094  -3.3685  -3.2974  -2.7479
    -0.7599  -0.6975  -0.6509  -0.6118  -0.5567  -0.5273  -0.4796  -0.4179
    -0.3607  -0.3167  -0.2614  -0.2087   0.4224   0.4745   0.5280   0.6173
     0.6278   0.6612   0.7645   0.7834   0.8160   0.8714   0.8991   0.9617
     0.9970   1.0407   1.0656   1.1009   1.1172   1.1418   1.1751   1.2017
     1.2153   1.2369   1.2825   1.3077   1.3170   1.3311   1.3625   1.3794
     1.4084   1.4296   1.4551   1.4720   1.4886   1.5123   1.5445   1.5483
     1.5730   1.6058   1.6224   1.6357   1.6674   1.6855   1.6963   1.7180
     1.7533   1.7724   1.8691   1.9845   2.0137   2.0484   2.0796   2.1192
     2.1504   2.2134   2.2445   2.3336   2.6502   2.7180   2.8154   3.1522

          k = 0.1250-0.1250-0.1250 (132670 PWs)   bands (ev):

   -18.5922 -18.4825 -18.4164 -18.3457 -18.3345 -18.3271 -18.2777 -18.2729
   -18.2715 -18.2671 -18.2613 -18.2598 -18.2576 -18.2558 -18.2512 -18.2472
   -18.2380 -18.2284 -18.2253 -18.2211 -18.2181 -18.2178 -18.2151 -18.2066
   -18.2060 -18.2049 -18.2047 -18.2003 -18.1997 -18.1978 -18.1934 -18.1903
   -18.1903 -18.1897 -18.1896 -18.1879 -18.1836 -18.1833 -18.1829 -18.1797
   -18.1779 -18.1743 -18.1714 -18.1696 -18.1690 -18.1685 -18.1603 -18.1488
    -9.4832  -9.3333  -9.2683  -9.2025  -9.1689  -9.0920  -9.0598  -9.0237
    -8.9894  -8.9627  -8.9459  -8.9268  -8.8900  -8.8572  -8.8428  -8.8097
    -8.7862  -8.7511  -8.6929  -8.6530  -8.6015  -8.5766  -8.5329  -8.4485
    -5.3575  -5.3505  -5.3435  -5.2552  -5.2526  -5.2331  -5.1907  -5.1899
    -5.1761  -5.1248  -5.1203  -5.1153  -5.1122  -5.1078  -5.1022  -5.0999
    -5.0866  -5.0851  -5.0050  -4.9876  -4.9826  -4.9725  -4.9670  -4.9610
    -4.4305  -3.9577  -3.9069  -3.8523  -3.4157  -3.3452  -3.3143  -2.7466
    -0.7733  -0.7013  -0.6542  -0.6066  -0.5709  -0.5117  -0.4518  -0.4069
    -0.3584  -0.3276  -0.2877  -0.1925   0.4212   0.4719   0.5256   0.6076
     0.6331   0.6614   0.7456   0.7789   0.8295   0.8627   0.9127   0.9523
     1.0177   1.0437   1.0655   1.0818   1.1172   1.1357   1.1744   1.2101
     1.2433   1.2513   1.2695   1.2781   1.3061   1.3340   1.3580   1.4016
     1.4186   1.4292   1.4552   1.4784   1.5013   1.5139   1.5318   1.5441
     1.5698   1.5946   1.6224   1.6455   1.6725   1.6882   1.7035   1.7210
     1.7433   1.7682   1.8526   1.9824   2.0105   2.0584   2.0811   2.1131
     2.1449   2.2169   2.2625   2.3311   2.6421   2.7430   2.7980   3.1301

          k =-0.1250-0.1250 0.3750 (132608 PWs)   bands (ev):

   -18.5922 -18.4825 -18.4164 -18.3457 -18.3345 -18.3271 -18.2777 -18.2729
   -18.2715 -18.2670 -18.2613 -18.2598 -18.2576 -18.2558 -18.2512 -18.2472
   -18.2380 -18.2284 -18.2253 -18.2211 -18.2181 -18.2178 -18.2151 -18.2066
   -18.2060 -18.2049 -18.2047 -18.2003 -18.1997 -18.1978 -18.1934 -18.1903
   -18.1903 -18.1897 -18.1896 -18.1879 -18.1836 -18.1833 -18.1829 -18.1797
   -18.1779 -18.1743 -18.1714 -18.1696 -18.1690 -18.1685 -18.1603 -18.1488
    -9.4755  -9.3287  -9.2739  -9.2030  -9.1784  -9.1032  -9.0655  -9.0263
    -8.9808  -8.9702  -8.9458  -8.9298  -8.8920  -8.8545  -8.8248  -8.7958
    -8.7809  -8.7556  -8.6891  -8.6482  -8.6085  -8.5841  -8.5351  -8.4497
    -5.3574  -5.3504  -5.3435  -5.2552  -5.2525  -5.2331  -5.1905  -5.1897
    -5.1759  -5.1245  -5.1206  -5.1152  -5.1121  -5.1076  -5.1026  -5.0996
    -5.0872  -5.0850  -5.0051  -4.9878  -4.9829  -4.9725  -4.9673  -4.9611
    -4.3070  -4.0857  -3.8170  -3.7350  -3.5809  -3.5068  -3.2117  -2.9480
    -0.7218  -0.6646  -0.6458  -0.5911  -0.4881  -0.4385  -0.4182  -0.3471
    -0.1154  -0.0484  -0.0003   0.0651   0.4412   0.4978   0.5267   0.5476
     0.5643   0.6068   0.6288   0.6906   0.6923   0.7333   0.7658   0.8205
     0.8487   0.8941   0.9972   1.0582   1.0754   1.1212   1.1442   1.1597
     1.2088   1.2303   1.2615   1.2992   1.3134   1.3210   1.3460   1.3780
     1.4077   1.4468   1.4726   1.4904   1.5080   1.5535   1.5668   1.5858
     1.6010   1.6282   1.6546   1.6667   1.6902   1.7217   1.7331   1.7604
     1.7864   1.8164   1.8464   1.8934   1.9510   1.9696   2.0009   2.0443
     2.0991   2.1493   2.2443   2.3278   2.4244   2.4794   2.7634   2.9174

          k =-0.1250 0.1250-0.3750 (132608 PWs)   bands (ev):

   -18.5922 -18.4825 -18.4164 -18.3457 -18.3345 -18.3271 -18.2777 -18.2729
   -18.2715 -18.2670 -18.2613 -18.2598 -18.2576 -18.2558 -18.2512 -18.2472
   -18.2380 -18.2284 -18.2253 -18.2211 -18.2181 -18.2178 -18.2151 -18.2066
   -18.2060 -18.2049 -18.2047 -18.2003 -18.1997 -18.1978 -18.1934 -18.1903
   -18.1903 -18.1897 -18.1896 -18.1879 -18.1836 -18.1833 -18.1829 -18.1797
   -18.1779 -18.1743 -18.1714 -18.1696 -18.1690 -18.1685 -18.1603 -18.1488
    -9.4751  -9.3349  -9.2559  -9.2148  -9.1857  -9.0936  -9.0683  -9.0224
    -8.9815  -8.9671  -8.9535  -8.9314  -8.8867  -8.8559  -8.8283  -8.7965
    -8.7741  -8.7580  -8.6902  -8.6492  -8.6062  -8.5851  -8.5350  -8.4497
    -5.3574  -5.3504  -5.3434  -5.2552  -5.2525  -5.2331  -5.1905  -5.1897
    -5.1759  -5.1247  -5.1202  -5.1153  -5.1123  -5.1080  -5.1022  -5.0996
    -5.0872  -5.0850  -5.0050  -4.9879  -4.9828  -4.9725  -4.9673  -4.9611
    -4.3023  -4.1001  -3.7832  -3.7479  -3.5780  -3.5334  -3.1936  -2.9533
    -0.7312  -0.6610  -0.6318  -0.5982  -0.4875  -0.4511  -0.4115  -0.3655
    -0.1126  -0.0213   0.0076   0.0659   0.4498   0.4966   0.5245   0.5518
     0.5668   0.6031   0.6195   0.6725   0.6905   0.7315   0.7613   0.8285
     0.8416   0.9152   0.9947   1.0504   1.0741   1.1120   1.1239   1.1570
     1.2128   1.2295   1.2681   1.2943   1.3243   1.3448   1.3683   1.3854
     1.4027   1.4331   1.4524   1.4836   1.5078   1.5360   1.5772   1.5875
     1.5986   1.6285   1.6575   1.6721   1.6897   1.7123   1.7243   1.7495
     1.7951   1.8220   1.8618   1.9061   1.9457   1.9678   2.0100   2.0296
     2.1113   2.1484   2.2675   2.3028   2.4335   2.4735   2.7504   2.9294

          k = 0.1250-0.1250-0.3750 (132608 PWs)   bands (ev):

   -18.5922 -18.4825 -18.4164 -18.3457 -18.3345 -18.3271 -18.2777 -18.2729
   -18.2715 -18.2670 -18.2613 -18.2598 -18.2576 -18.2558 -18.2512 -18.2472
   -18.2380 -18.2284 -18.2253 -18.2211 -18.2181 -18.2178 -18.2151 -18.2066
   -18.2060 -18.2049 -18.2047 -18.2003 -18.1997 -18.1978 -18.1934 -18.1903
   -18.1903 -18.1897 -18.1896 -18.1879 -18.1836 -18.1833 -18.1829 -18.1797
   -18.1779 -18.1743 -18.1714 -18.1696 -18.1690 -18.1685 -18.1603 -18.1488
    -9.4749  -9.3342  -9.2617  -9.2165  -9.1732  -9.1040  -9.0637  -9.0170
    -8.9894  -8.9688  -8.9513  -8.9284  -8.8890  -8.8575  -8.8258  -8.7920
    -8.7817  -8.7547  -8.6907  -8.6468  -8.6083  -8.5849  -8.5351  -8.4497
    -5.3574  -5.3504  -5.3434  -5.2552  -5.2525  -5.2331  -5.1905  -5.1897
    -5.1759  -5.1248  -5.1202  -5.1152  -5.1123  -5.1080  -5.1022  -5.0995
    -5.0872  -5.0851  -5.0052  -4.9877  -4.9828  -4.9726  -4.9673  -4.9610
    -4.3032  -4.0975  -3.7884  -3.7475  -3.5802  -3.5258  -3.1980  -2.9507
    -0.7395  -0.6608  -0.6310  -0.6005  -0.4936  -0.4420  -0.4146  -0.3541
    -0.1087  -0.0326   0.0168   0.0840   0.4270   0.4973   0.5068   0.5389
     0.5673   0.5928   0.6343   0.6809   0.7092   0.7159   0.7776   0.8133
     0.8490   0.8973   0.9990   1.0473   1.0866   1.1085   1.1261   1.1488
     1.2269   1.2544   1.2758   1.2897   1.3058   1.3410   1.3817   1.3858
     1.4126   1.4281   1.4520   1.4724   1.5125   1.5335   1.5655   1.5940
     1.6091   1.6283   1.6423   1.6691   1.6920   1.7153   1.7305   1.7591
     1.7898   1.8222   1.8545   1.8889   1.9434   1.9771   1.9979   2.0414
     2.1064   2.1550   2.2721   2.3118   2.4256   2.4743   2.7738   2.8939

          k = 0.3750-0.1250 0.1250 (132608 PWs)   bands (ev):

   -18.5922 -18.4825 -18.4164 -18.3457 -18.3345 -18.3271 -18.2777 -18.2729
   -18.2715 -18.2671 -18.2613 -18.2598 -18.2576 -18.2558 -18.2512 -18.2472
   -18.2380 -18.2284 -18.2253 -18.2211 -18.2181 -18.2178 -18.2151 -18.2066
   -18.2060 -18.2049 -18.2047 -18.2003 -18.1997 -18.1978 -18.1934 -18.1903
   -18.1903 -18.1897 -18.1896 -18.1879 -18.1836 -18.1833 -18.1829 -18.1797
   -18.1779 -18.1743 -18.1714 -18.1696 -18.1690 -18.1685 -18.1603 -18.1488
    -9.4772  -9.3368  -9.2447  -9.2136  -9.1868  -9.1052  -9.0658  -9.0297
    -8.9762  -8.9711  -8.9392  -8.9206  -8.8859  -8.8623  -8.8493  -8.8101
    -8.7653  -8.7468  -8.6861  -8.6586  -8.5985  -8.5800  -8.5361  -8.4534
    -5.3574  -5.3505  -5.3433  -5.2551  -5.2525  -5.2330  -5.1906  -5.1897
    -5.1761  -5.1246  -5.1197  -5.1152  -5.1118  -5.1080  -5.1033  -5.1001
    -5.0867  -5.0852  -5.0048  -4.9879  -4.9827  -4.9721  -4.9674  -4.9616
    -4.3065  -4.1049  -3.7726  -3.7524  -3.5701  -3.5385  -3.1840  -2.9573
    -0.7424  -0.6471  -0.6036  -0.5726  -0.5422  -0.4886  -0.4158  -0.3506
    -0.0910  -0.0248   0.0216   0.0841   0.3722   0.4763   0.4879   0.5249
     0.5788   0.5964   0.6224   0.6656   0.7101   0.7651   0.7907   0.8445
     0.8672   0.9118   0.9807   1.0178   1.0515   1.1149   1.1426   1.1786
     1.2214   1.2395   1.2923   1.3101   1.3328   1.3647   1.3809   1.3990
     1.4184   1.4443   1.4600   1.4807   1.4951   1.5160   1.5264   1.5614
     1.6016   1.6190   1.6386   1.6710   1.6893   1.6942   1.7278   1.7395
     1.7738   1.8175   1.8624   1.9297   1.9526   1.9883   2.0239   2.0752
     2.1122   2.1171   2.2617   2.3197   2.4290   2.4741   2.7922   2.8964

          k =-0.3750-0.1250-0.1250 (132608 PWs)   bands (ev):

   -18.5922 -18.4825 -18.4164 -18.3457 -18.3345 -18.3271 -18.2777 -18.2729
   -18.2715 -18.2671 -18.2613 -18.2598 -18.2576 -18.2558 -18.2512 -18.2472
   -18.2380 -18.2284 -18.2253 -18.2211 -18.2181 -18.2178 -18.2151 -18.2066
   -18.2060 -18.2049 -18.2047 -18.2003 -18.1997 -18.1978 -18.1934 -18.1903
   -18.1903 -18.1897 -18.1896 -18.1879 -18.1836 -18.1833 -18.1829 -18.1797
   -18.1779 -18.1743 -18.1714 -18.1696 -18.1690 -18.1685 -18.1603 -18.1488
    -9.4766  -9.3379  -9.2443  -9.2137  -9.1924  -9.0946  -9.0634  -9.0293
    -8.9875  -8.9707  -8.9318  -8.9180  -8.8964  -8.8631  -8.8485  -8.8059
    -8.7678  -8.7458  -8.6847  -8.6577  -8.5991  -8.5809  -8.5358  -8.4534
    -5.3574  -5.3505  -5.3433  -5.2551  -5.2525  -5.2330  -5.1906  -5.1898
    -5.1761  -5.1244  -5.1202  -5.1152  -5.1113  -5.1077  -5.1039  -5.1000
    -5.0867  -5.0852  -5.0048  -4.9878  -4.9828  -4.9721  -4.9675  -4.9615
    -4.3022  -4.1114  -3.7908  -3.7219  -3.6083  -3.5116  -3.1769  -2.9629
    -0.7485  -0.6720  -0.6032  -0.5592  -0.5311  -0.4844  -0.4132  -0.3554
    -0.0976  -0.0087   0.0342   0.0803   0.3684   0.4730   0.5012   0.5205
     0.5748   0.5931   0.6186   0.6744   0.7027   0.7554   0.7943   0.8445
     0.8798   0.9064   0.9587   1.0036   1.0832   1.1103   1.1593   1.1959
     1.2231   1.2417   1.2752   1.2958   1.3109   1.3473   1.3609   1.3950
     1.4251   1.4370   1.4569   1.4756   1.4939   1.5259   1.5543   1.5641
     1.6083   1.6292   1.6418   1.6679   1.6901   1.7038   1.7259   1.7605
     1.7676   1.8234   1.8523   1.9380   1.9528   1.9877   2.0398   2.0598
     2.0952   2.1176   2.2481   2.3203   2.4155   2.4968   2.7943   2.9055

          k = 0.3750 0.1250-0.1250 (132608 PWs)   bands (ev):

   -18.5922 -18.4825 -18.4164 -18.3457 -18.3345 -18.3271 -18.2777 -18.2729
   -18.2715 -18.2671 -18.2613 -18.2598 -18.2576 -18.2558 -18.2512 -18.2472
   -18.2380 -18.2284 -18.2253 -18.2211 -18.2181 -18.2178 -18.2151 -18.2066
   -18.2060 -18.2049 -18.2047 -18.2003 -18.1997 -18.1978 -18.1934 -18.1903
   -18.1903 -18.1897 -18.1896 -18.1879 -18.1836 -18.1833 -18.1829 -18.1797
   -18.1779 -18.1743 -18.1714 -18.1696 -18.1690 -18.1685 -18.1603 -18.1488
    -9.4774  -9.3352  -9.2529  -9.2067  -9.1821  -9.1143  -9.0574  -9.0352
    -8.9812  -8.9670  -8.9395  -8.9099  -8.8951  -8.8621  -8.8490  -8.8080
    -8.7664  -8.7484  -8.6849  -8.6578  -8.6003  -8.5791  -8.5360  -8.4534
    -5.3574  -5.3505  -5.3434  -5.2550  -5.2526  -5.2330  -5.1906  -5.1898
    -5.1761  -5.1244  -5.1202  -5.1151  -5.1112  -5.1078  -5.1039  -5.1001
    -5.0866  -5.0851  -5.0048  -4.9878  -4.9828  -4.9721  -4.9674  -4.9616
    -4.3090  -4.0997  -3.7805  -3.7529  -3.5545  -3.5441  -3.1912  -2.9550
    -0.7424  -0.6376  -0.6083  -0.5764  -0.5347  -0.4917  -0.4042  -0.3598
    -0.0876  -0.0177   0.0148   0.0616   0.3478   0.4789   0.5071   0.5239
     0.5757   0.5996   0.6202   0.6882   0.7132   0.7557   0.8018   0.8276
     0.8849   0.9146   0.9830   0.9981   1.0513   1.1178   1.1522   1.1764
     1.2170   1.2530   1.2875   1.2954   1.3344   1.3573   1.3783   1.4078
     1.4271   1.4442   1.4642   1.4792   1.5080   1.5135   1.5329   1.5510
     1.5923   1.6128   1.6469   1.6635   1.6861   1.6966   1.7276   1.7581
     1.7780   1.8317   1.8435   1.9262   1.9392   1.9897   2.0285   2.0599
     2.0985   2.1430   2.2449   2.3211   2.4489   2.4799   2.7799   2.8886

          k =-0.3750 0.1250 0.1250 (132608 PWs)   bands (ev):

   -18.5922 -18.4825 -18.4164 -18.3457 -18.3345 -18.3271 -18.2777 -18.2729
   -18.2715 -18.2671 -18.2613 -18.2598 -18.2576 -18.2558 -18.2512 -18.2472
   -18.2380 -18.2284 -18.2253 -18.2211 -18.2181 -18.2178 -18.2151 -18.2066
   -18.2060 -18.2049 -18.2047 -18.2003 -18.1997 -18.1978 -18.1934 -18.1903
   -18.1903 -18.1897 -18.1896 -18.1879 -18.1836 -18.1833 -18.1829 -18.1797
   -18.1779 -18.1743 -18.1714 -18.1696 -18.1690 -18.1685 -18.1603 -18.1488
    -9.4772  -9.3316  -9.2670  -9.1961  -9.1818  -9.1079  -9.0654  -9.0245
    -8.9961  -8.9652  -8.9341  -8.9186  -8.8917  -8.8626  -8.8435  -8.8108
    -8.7638  -8.7482  -8.6880  -8.6557  -8.6001  -8.5795  -8.5364  -8.4533
    -5.3574  -5.3505  -5.3433  -5.2550  -5.2526  -5.2330  -5.1907  -5.1897
    -5.1761  -5.1247  -5.1197  -5.1151  -5.1121  -5.1079  -5.1031  -5.1000
    -5.0867  -5.0852  -5.0050  -4.9878  -4.9827  -4.9722  -4.9674  -4.9615
    -4.3105  -4.0904  -3.8180  -3.7278  -3.5812  -3.5066  -3.2005  -2.9509
    -0.7528  -0.6731  -0.5967  -0.5631  -0.5219  -0.4961  -0.3948  -0.3488
    -0.0778  -0.0321   0.0259   0.0572   0.3513   0.4764   0.4990   0.5210
     0.5727   0.5976   0.6218   0.6726   0.7178   0.7741   0.7809   0.8405
     0.8937   0.9096   0.9609   1.0107   1.0815   1.1079   1.1582   1.1786
     1.2138   1.2422   1.2771   1.3029   1.3287   1.3439   1.3766   1.4063
     1.4169   1.4400   1.4601   1.4764   1.5011   1.5213   1.5412   1.5666
     1.6161   1.6229   1.6475   1.6705   1.6885   1.7023   1.7202   1.7318
     1.7741   1.8091   1.8642   1.9102   1.9546   1.9882   2.0279   2.0635
     2.1105   2.1379   2.2511   2.3324   2.4265   2.4721   2.7977   2.8843

          k =-0.1250 0.3750 0.1250 (132608 PWs)   bands (ev):

   -18.5922 -18.4825 -18.4164 -18.3457 -18.3345 -18.3271 -18.2777 -18.2729
   -18.2715 -18.2670 -18.2613 -18.2598 -18.2576 -18.2558 -18.2512 -18.2472
   -18.2380 -18.2283 -18.2253 -18.2211 -18.2181 -18.2178 -18.2151 -18.2066
   -18.2060 -18.2049 -18.2047 -18.2003 -18.1997 -18.1978 -18.1934 -18.1903
   -18.1903 -18.1897 -18.1896 -18.1879 -18.1836 -18.1833 -18.1829 -18.1797
   -18.1779 -18.1743 -18.1714 -18.1696 -18.1690 -18.1685 -18.1603 -18.1488
    -9.4747  -9.3302  -9.2650  -9.2176  -9.1705  -9.1095  -9.0785  -9.0150
    -8.9921  -8.9571  -8.9395  -8.9223  -8.8795  -8.8564  -8.8403  -8.8053
    -8.7874  -8.7440  -8.6855  -8.6489  -8.6110  -8.5862  -8.5333  -8.4496
    -5.3574  -5.3504  -5.3435  -5.2552  -5.2525  -5.2331  -5.1908  -5.1898
    -5.1763  -5.1243  -5.1197  -5.1150  -5.1118  -5.1080  -5.1032  -5.0999
    -5.0864  -5.0854  -5.0052  -4.9881  -4.9827  -4.9726  -4.9670  -4.9610
    -4.2978  -4.0907  -3.7866  -3.7526  -3.5721  -3.5300  -3.2226  -2.9678
    -0.6759  -0.6409  -0.5883  -0.5420  -0.5050  -0.4523  -0.3807  -0.3507
    -0.1298  -0.0488  -0.0158   0.0767   0.3683   0.4325   0.4976   0.5249
     0.5660   0.6046   0.6493   0.6636   0.7105   0.7355   0.7661   0.8024
     0.8882   0.9129   0.9817   1.0303   1.0534   1.1064   1.1528   1.1824
     1.2162   1.2552   1.2702   1.3111   1.3247   1.3602   1.3740   1.3920
     1.4209   1.4335   1.4462   1.4608   1.4947   1.5130   1.5413   1.5720
     1.6088   1.6431   1.6552   1.6835   1.6878   1.7231   1.7238   1.7457
     1.7851   1.7932   1.8549   1.8701   1.9455   1.9785   1.9962   2.0280
     2.1009   2.1319   2.2539   2.3428   2.4272   2.5334   2.7451   2.8742

          k =-0.1250-0.3750-0.1250 (132608 PWs)   bands (ev):

   -18.5922 -18.4825 -18.4164 -18.3457 -18.3345 -18.3271 -18.2777 -18.2729
   -18.2715 -18.2670 -18.2613 -18.2598 -18.2576 -18.2558 -18.2512 -18.2472
   -18.2380 -18.2284 -18.2253 -18.2211 -18.2181 -18.2178 -18.2151 -18.2066
   -18.2060 -18.2049 -18.2047 -18.2003 -18.1997 -18.1978 -18.1934 -18.1903
   -18.1903 -18.1897 -18.1896 -18.1879 -18.1836 -18.1833 -18.1829 -18.1797
   -18.1779 -18.1743 -18.1714 -18.1696 -18.1690 -18.1685 -18.1603 -18.1488
    -9.4743  -9.3323  -9.2605  -9.2172  -9.1810  -9.0989  -9.0802  -9.0171
    -8.9855  -8.9583  -8.9422  -8.9215  -8.8822  -8.8548  -8.8457  -8.8021
    -8.7889  -8.7432  -8.6833  -8.6496  -8.6107  -8.5871  -8.5330  -8.4497
    -5.3574  -5.3505  -5.3436  -5.2552  -5.2525  -5.2331  -5.1907  -5.1898
    -5.1763  -5.1240  -5.1201  -5.1151  -5.1112  -5.1076  -5.1038  -5.0999
    -5.0864  -5.0855  -5.0051  -4.9882  -4.9828  -4.9725  -4.9670  -4.9609
    -4.2928  -4.0980  -3.8014  -3.7252  -3.6099  -3.5033  -3.2150  -2.9746
    -0.6627  -0.6310  -0.6187  -0.5544  -0.4882  -0.4391  -0.4139  -0.3425
    -0.1335  -0.0320   0.0013   0.0709   0.3578   0.4505   0.5018   0.5246
     0.5677   0.6023   0.6415   0.6675   0.7013   0.7196   0.7757   0.8074
     0.8794   0.9104   0.9931   1.0507   1.0760   1.1001   1.1374   1.1757
     1.2048   1.2492   1.2840   1.3095   1.3284   1.3353   1.3556   1.3680
     1.3897   1.4204   1.4501   1.4785   1.5097   1.5357   1.5502   1.5683
     1.6039   1.6378   1.6730   1.6835   1.6911   1.7165   1.7416   1.7525
     1.7726   1.8200   1.8599   1.8846   1.9374   1.9639   1.9961   2.0225
     2.1003   2.1275   2.2317   2.3560   2.4265   2.5123   2.7685   2.8991

          k = 0.1250 0.3750-0.1250 (132608 PWs)   bands (ev):

   -18.5922 -18.4825 -18.4164 -18.3457 -18.3345 -18.3271 -18.2777 -18.2729
   -18.2715 -18.2670 -18.2613 -18.2598 -18.2576 -18.2558 -18.2512 -18.2472
   -18.2380 -18.2283 -18.2253 -18.2211 -18.2181 -18.2178 -18.2151 -18.2066
   -18.2060 -18.2049 -18.2047 -18.2003 -18.1997 -18.1978 -18.1934 -18.1903
   -18.1903 -18.1897 -18.1896 -18.1879 -18.1836 -18.1833 -18.1829 -18.1797
   -18.1779 -18.1743 -18.1714 -18.1696 -18.1690 -18.1685 -18.1603 -18.1488
    -9.4751  -9.3289  -9.2649  -9.2145  -9.1770  -9.1051  -9.0792  -9.0257
    -8.9829  -8.9556  -8.9390  -8.9225  -8.8786  -8.8553  -8.8420  -8.8075
    -8.7861  -8.7455  -8.6839  -8.6502  -8.6112  -8.5856  -8.5331  -8.4497
    -5.3574  -5.3504  -5.3436  -5.2552  -5.2526  -5.2331  -5.1906  -5.1899
    -5.1764  -5.1240  -5.1201  -5.1151  -5.1112  -5.1077  -5.1038  -5.1000
    -5.0864  -5.0853  -5.0051  -4.9882  -4.9828  -4.9725  -4.9670  -4.9610
    -4.2994  -4.0879  -3.7862  -3.7565  -3.5645  -3.5322  -3.2260  -2.9682
    -0.6727  -0.6325  -0.5640  -0.5467  -0.5024  -0.4562  -0.4089  -0.3445
    -0.1316  -0.0546  -0.0293   0.0493   0.3973   0.4521   0.5051   0.5337
     0.5711   0.6048   0.6272   0.6660   0.7069   0.7261   0.7830   0.7940
     0.8893   0.9210   0.9942   1.0253   1.0566   1.1092   1.1360   1.1720
     1.1984   1.2569   1.2869   1.3064   1.3269   1.3545   1.3673   1.3957
     1.4100   1.4241   1.4584   1.4767   1.5043   1.5249   1.5529   1.5724
     1.5935   1.6407   1.6483   1.6723   1.6866   1.7099   1.7310   1.7576
     1.7670   1.8282   1.8525   1.8941   1.9309   1.9612   1.9955   2.0161
     2.1008   2.1246   2.2439   2.3643   2.4557   2.5107   2.7346   2.8813

          k = 0.1250-0.3750 0.1250 (132608 PWs)   bands (ev):

   -18.5922 -18.4825 -18.4164 -18.3457 -18.3345 -18.3271 -18.2777 -18.2729
   -18.2715 -18.2670 -18.2613 -18.2598 -18.2576 -18.2558 -18.2512 -18.2472
   -18.2380 -18.2283 -18.2253 -18.2211 -18.2181 -18.2178 -18.2151 -18.2066
   -18.2060 -18.2049 -18.2047 -18.2003 -18.1997 -18.1978 -18.1934 -18.1903
   -18.1903 -18.1897 -18.1896 -18.1879 -18.1836 -18.1833 -18.1829 -18.1797
   -18.1779 -18.1743 -18.1714 -18.1696 -18.1690 -18.1685 -18.1603 -18.1488
    -9.4752  -9.3247  -9.2760  -9.2058  -9.1778  -9.1025  -9.0839  -9.0257
    -8.9746  -8.9558  -8.9485  -8.9247  -8.8733  -8.8517  -8.8460  -8.8106
    -8.7827  -8.7454  -8.6854  -8.6500  -8.6103  -8.5857  -8.5334  -8.4496
    -5.3574  -5.3505  -5.3435  -5.2552  -5.2525  -5.2331  -5.1907  -5.1898
    -5.1764  -5.1242  -5.1197  -5.1151  -5.1119  -5.1079  -5.1031  -5.1000
    -5.0864  -5.0854  -5.0050  -4.9882  -4.9827  -4.9725  -4.9669  -4.9610
    -4.3007  -4.0770  -3.8271  -3.7299  -3.5885  -3.4945  -3.2371  -2.9657
    -0.6602  -0.6238  -0.6108  -0.5610  -0.4948  -0.4561  -0.3777  -0.3365
    -0.1095  -0.0816  -0.0312   0.0520   0.4006   0.4431   0.4980   0.5406
     0.5661   0.6115   0.6372   0.6654   0.7098   0.7391   0.7591   0.8002
     0.8874   0.9133   0.9823   1.0344   1.0927   1.1013   1.1466   1.1637
     1.1999   1.2447   1.2873   1.2966   1.3240   1.3429   1.3594   1.3968
     1.4077   1.4252   1.4516   1.4796   1.4999   1.5229   1.5513   1.5712
     1.6111   1.6321   1.6553   1.6661   1.6959   1.7066   1.7382   1.7530
     1.7879   1.7997   1.8528   1.8945   1.9404   1.9770   2.0018   2.0150
     2.1040   2.1278   2.2349   2.3572   2.4175   2.5189   2.7624   2.8956

          k =-0.1250-0.3750 0.3750 (132616 PWs)   bands (ev):

   -18.5922 -18.4825 -18.4164 -18.3457 -18.3345 -18.3271 -18.2777 -18.2729
   -18.2715 -18.2670 -18.2613 -18.2598 -18.2576 -18.2558 -18.2512 -18.2472
   -18.2380 -18.2284 -18.2253 -18.2211 -18.2181 -18.2178 -18.2151 -18.2066
   -18.2060 -18.2049 -18.2047 -18.2003 -18.1997 -18.1978 -18.1934 -18.1903
   -18.1903 -18.1897 -18.1896 -18.1879 -18.1836 -18.1833 -18.1829 -18.1797
   -18.1779 -18.1743 -18.1714 -18.1696 -18.1690 -18.1685 -18.1603 -18.1488
    -9.4695  -9.3119  -9.2802  -9.2085  -9.1888  -9.1257  -9.0770  -9.0346
    -8.9778  -8.9558  -8.9429  -8.9276  -8.8759  -8.8443  -8.8216  -8.8031
    -8.7769  -8.7548  -8.6814  -8.6499  -8.6131  -8.5906  -8.5365  -8.4507
    -5.3574  -5.3504  -5.3435  -5.2553  -5.2525  -5.2332  -5.1906  -5.1899
    -5.1763  -5.1242  -5.1200  -5.1151  -5.1117  -5.1077  -5.1036  -5.0993
    -5.0869  -5.0849  -5.0051  -4.9881  -4.9830  -4.9726  -4.9671  -4.9609
    -4.1853  -3.9692  -3.9379  -3.7164  -3.6557  -3.4405  -3.3781  -3.1479
    -0.6484  -0.5401  -0.5204  -0.4596  -0.3957  -0.2305  -0.1761  -0.1452
    -0.0475  -0.0379   0.0328   0.1417   0.3718   0.4526   0.4762   0.5265
     0.5410   0.5715   0.5904   0.6240   0.6570   0.6701   0.7030   0.7602
     0.8127   0.8723   0.9236   0.9472   0.9975   1.0467   1.0654   1.1142
     1.1396   1.1509   1.2068   1.2445   1.2848   1.3074   1.3357   1.3652
     1.4169   1.4395   1.4679   1.4807   1.5176   1.5590   1.5875   1.6208
     1.6331   1.6580   1.6908   1.7103   1.7221   1.7415   1.7756   1.7983
     1.8194   1.8332   1.8584   1.8839   1.9036   1.9405   1.9753   1.9891
     2.0188   2.0573   2.1125   2.2060   2.3192   2.4195   2.5228   2.6569

          k =-0.1250 0.3750-0.3750 (132616 PWs)   bands (ev):

   -18.5922 -18.4825 -18.4164 -18.3457 -18.3345 -18.3271 -18.2777 -18.2729
   -18.2715 -18.2670 -18.2613 -18.2598 -18.2576 -18.2558 -18.2512 -18.2472
   -18.2380 -18.2284 -18.2253 -18.2211 -18.2181 -18.2178 -18.2151 -18.2066
   -18.2060 -18.2049 -18.2047 -18.2003 -18.1997 -18.1978 -18.1934 -18.1903
   -18.1903 -18.1897 -18.1896 -18.1879 -18.1836 -18.1833 -18.1829 -18.1797
   -18.1779 -18.1743 -18.1714 -18.1696 -18.1690 -18.1685 -18.1603 -18.1488
    -9.4693  -9.3144  -9.2762  -9.2074  -9.1950  -9.1209  -9.0803  -9.0301
    -8.9759  -8.9599  -8.9420  -8.9325  -8.8699  -8.8456  -8.8246  -8.8030
    -8.7744  -8.7547  -8.6834  -8.6498  -8.6114  -8.5913  -8.5366  -8.4507
    -5.3574  -5.3504  -5.3434  -5.2553  -5.2525  -5.2332  -5.1907  -5.1899
    -5.1763  -5.1243  -5.1195  -5.1151  -5.1121  -5.1080  -5.1030  -5.0993
    -5.0869  -5.0850  -5.0051  -4.9882  -4.9829  -4.9726  -4.9671  -4.9610
    -4.1825  -3.9734  -3.9358  -3.7251  -3.6513  -3.4392  -3.3736  -3.1498
    -0.6475  -0.5491  -0.5141  -0.4765  -0.3862  -0.2410  -0.1754  -0.1275
    -0.0532  -0.0341   0.0423   0.1488   0.3736   0.4610   0.4872   0.5179
     0.5336   0.5754   0.5814   0.6167   0.6502   0.6687   0.6965   0.7675
     0.7992   0.8807   0.9365   0.9631   0.9867   1.0463   1.0599   1.0865
     1.1391   1.1819   1.2103   1.2405   1.2744   1.3166   1.3483   1.3626
     1.3966   1.4253   1.4410   1.4919   1.5196   1.5665   1.6008   1.6072
     1.6335   1.6682   1.6867   1.7024   1.7194   1.7498   1.7742   1.8005
     1.8219   1.8366   1.8546   1.8949   1.9104   1.9407   1.9705   1.9988
     2.0192   2.0740   2.1126   2.1996   2.2896   2.4291   2.5048   2.6836

          k = 0.1250-0.3750-0.3750 (132616 PWs)   bands (ev):

   -18.5922 -18.4825 -18.4164 -18.3457 -18.3345 -18.3271 -18.2777 -18.2729
   -18.2715 -18.2670 -18.2613 -18.2598 -18.2576 -18.2558 -18.2512 -18.2472
   -18.2380 -18.2284 -18.2253 -18.2211 -18.2181 -18.2178 -18.2151 -18.2066
   -18.2060 -18.2049 -18.2047 -18.2003 -18.1997 -18.1978 -18.1934 -18.1903
   -18.1903 -18.1897 -18.1896 -18.1879 -18.1836 -18.1833 -18.1829 -18.1797
   -18.1779 -18.1743 -18.1714 -18.1696 -18.1690 -18.1685 -18.1603 -18.1488
    -9.4688  -9.3224  -9.2599  -9.2238  -9.1862  -9.1270  -9.0717  -9.0308
    -8.9799  -8.9590  -8.9466  -8.9261  -8.8726  -8.8487  -8.8234  -8.7970
    -8.7791  -8.7530  -8.6839  -8.6479  -8.6125  -8.5918  -8.5364  -8.4507
    -5.3574  -5.3504  -5.3435  -5.2553  -5.2525  -5.2332  -5.1908  -5.1898
    -5.1762  -5.1244  -5.1195  -5.1151  -5.1120  -5.1081  -5.1030  -5.0992
    -5.0869  -5.0850  -5.0052  -4.9880  -4.9829  -4.9726  -4.9671  -4.9609
    -4.1698  -4.0441  -3.8560  -3.7304  -3.6442  -3.5168  -3.3068  -3.1623
    -0.6543  -0.5430  -0.5081  -0.4693  -0.4060  -0.2616  -0.1902  -0.1379
    -0.0687   0.0271   0.1047   0.2062   0.3111   0.3980   0.4570   0.4935
     0.5182   0.5598   0.5966   0.6420   0.6726   0.6919   0.7114   0.7492
     0.8162   0.8792   0.9111   0.9526   0.9770   1.0337   1.0741   1.1228
     1.1536   1.1713   1.2109   1.2583   1.2736   1.3018   1.3450   1.3732
     1.4091   1.4442   1.4527   1.4714   1.5157   1.5614   1.5892   1.6213
     1.6287   1.6710   1.6841   1.6980   1.7218   1.7390   1.7688   1.7877
     1.8195   1.8439   1.8610   1.8922   1.9188   1.9309   1.9545   1.9981
     2.0312   2.0740   2.1145   2.2150   2.3163   2.3880   2.5609   2.6276

          k = 0.3750 0.1250-0.3750 (132616 PWs)   bands (ev):

   -18.5922 -18.4825 -18.4164 -18.3457 -18.3345 -18.3271 -18.2777 -18.2729
   -18.2715 -18.2670 -18.2613 -18.2598 -18.2576 -18.2558 -18.2512 -18.2472
   -18.2380 -18.2284 -18.2253 -18.2211 -18.2181 -18.2178 -18.2151 -18.2066
   -18.2060 -18.2049 -18.2047 -18.2003 -18.1997 -18.1978 -18.1934 -18.1903
   -18.1903 -18.1897 -18.1896 -18.1879 -18.1836 -18.1833 -18.1829 -18.1797
   -18.1779 -18.1743 -18.1714 -18.1696 -18.1690 -18.1685 -18.1603 -18.1488
    -9.4711  -9.3185  -9.2770  -9.2070  -9.1829  -9.1146  -9.0676  -9.0377
    -8.9866  -8.9766  -8.9343  -8.9181  -8.8955  -8.8612  -8.8083  -8.7953
    -8.7682  -8.7575  -8.6866  -8.6512  -8.6042  -8.5879  -8.5376  -8.4538
    -5.3573  -5.3505  -5.3433  -5.2551  -5.2526  -5.2330  -5.1905  -5.1897
    -5.1760  -5.1243  -5.1199  -5.1150  -5.1118  -5.1077  -5.1037  -5.0997
    -5.0872  -5.0852  -5.0049  -4.9877  -4.9830  -4.9720  -4.9677  -4.9615
    -4.1973  -3.9828  -3.9412  -3.7300  -3.6330  -3.4231  -3.3625  -3.1289
    -0.6989  -0.6206  -0.5801  -0.4831  -0.3755  -0.2718  -0.2169  -0.0765
    -0.0308   0.0233   0.0825   0.1678   0.3124   0.4664   0.4909   0.5230
     0.5540   0.5688   0.6073   0.6268   0.6443   0.6786   0.7033   0.7488
     0.8096   0.8586   0.9195   0.9527   0.9998   1.0470   1.0841   1.0955
     1.1417   1.1939   1.2126   1.2478   1.2851   1.3304   1.3480   1.3848
     1.4158   1.4233   1.4719   1.5028   1.5245   1.5529   1.5811   1.5978
     1.6092   1.6428   1.6793   1.6965   1.7351   1.7458   1.7684   1.7913
     1.8188   1.8348   1.8635   1.8853   1.9325   1.9420   1.9945   2.0241
     2.0309   2.0927   2.1257   2.1898   2.3086   2.4619   2.5043   2.6267

          k =-0.3750-0.1250-0.3750 (132616 PWs)   bands (ev):

   -18.5922 -18.4825 -18.4164 -18.3457 -18.3345 -18.3271 -18.2777 -18.2729
   -18.2715 -18.2670 -18.2613 -18.2598 -18.2576 -18.2558 -18.2512 -18.2472
   -18.2380 -18.2284 -18.2253 -18.2211 -18.2181 -18.2178 -18.2151 -18.2066
   -18.2060 -18.2049 -18.2047 -18.2003 -18.1997 -18.1978 -18.1934 -18.1903
   -18.1903 -18.1897 -18.1896 -18.1879 -18.1836 -18.1833 -18.1829 -18.1797
   -18.1779 -18.1743 -18.1714 -18.1696 -18.1690 -18.1685 -18.1603 -18.1488
    -9.4703  -9.3248  -9.2643  -9.2210  -9.1853  -9.0958  -9.0764  -9.0229
    -9.0042  -8.9751  -8.9293  -8.9233  -8.8955  -8.8622  -8.8144  -8.7898
    -8.7656  -8.7580  -8.6862  -8.6512  -8.6017  -8.5909  -8.5373  -8.4538
    -5.3573  -5.3505  -5.3433  -5.2552  -5.2525  -5.2330  -5.1905  -5.1897
    -5.1760  -5.1242  -5.1199  -5.1151  -5.1119  -5.1076  -5.1037  -5.0996
    -5.0873  -5.0853  -5.0049  -4.9877  -4.9830  -4.9720  -4.9678  -4.9615
    -4.1721  -4.0638  -3.8626  -3.7631  -3.6056  -3.4958  -3.2787  -3.1563
    -0.7004  -0.6271  -0.5946  -0.4766  -0.3589  -0.2963  -0.2121  -0.1363
    -0.0239   0.0680   0.1479   0.2188   0.3469   0.4271   0.4793   0.4947
     0.5174   0.5612   0.5771   0.6208   0.6575   0.6813   0.7079   0.7422
     0.8261   0.8606   0.8962   0.9517   0.9985   1.0426   1.0894   1.0997
     1.1496   1.1950   1.2311   1.2568   1.2815   1.3092   1.3512   1.3732
     1.4075   1.4327   1.4464   1.5005   1.5208   1.5620   1.5816   1.6063
     1.6253   1.6457   1.6789   1.7173   1.7228   1.7535   1.7589   1.7947
     1.7969   1.8326   1.8814   1.9004   1.9381   1.9638   1.9850   2.0189
     2.0480   2.0633   2.1115   2.2030   2.3144   2.3971   2.5534   2.6400

          k = 0.3750-0.1250 0.3750 (132616 PWs)   bands (ev):

   -18.5922 -18.4825 -18.4164 -18.3457 -18.3345 -18.3271 -18.2777 -18.2729
   -18.2715 -18.2670 -18.2613 -18.2598 -18.2576 -18.2558 -18.2512 -18.2472
   -18.2380 -18.2284 -18.2253 -18.2211 -18.2181 -18.2178 -18.2151 -18.2066
   -18.2060 -18.2049 -18.2047 -18.2003 -18.1997 -18.1978 -18.1934 -18.1903
   -18.1903 -18.1897 -18.1896 -18.1879 -18.1836 -18.1833 -18.1829 -18.1797
   -18.1779 -18.1743 -18.1714 -18.1696 -18.1690 -18.1685 -18.1603 -18.1488
    -9.4707  -9.3277  -9.2501  -9.2249  -9.1918  -9.1034  -9.0709  -9.0331
    -8.9907  -8.9739  -8.9360  -8.9245  -8.8878  -8.8627  -8.8113  -8.7946
    -8.7657  -8.7571  -8.6877  -8.6526  -8.6007  -8.5900  -8.5374  -8.4539
    -5.3574  -5.3505  -5.3433  -5.2552  -5.2525  -5.2330  -5.1905  -5.1896
    -5.1760  -5.1244  -5.1194  -5.1151  -5.1122  -5.1081  -5.1032  -5.0996
    -5.0873  -5.0853  -5.0048  -4.9878  -4.9829  -4.9721  -4.9677  -4.9615
    -4.1795  -4.0595  -3.8569  -3.7434  -3.6244  -3.5047  -3.2807  -3.1493
    -0.7009  -0.6187  -0.5840  -0.4747  -0.3697  -0.3035  -0.2034  -0.1369
    -0.0276   0.0551   0.1182   0.2192   0.3494   0.4329   0.4778   0.5082
     0.5402   0.5669   0.5803   0.6173   0.6484   0.6808   0.6952   0.7529
     0.8042   0.8878   0.9047   0.9577   1.0162   1.0311   1.0714   1.0952
     1.1413   1.1911   1.2261   1.2644   1.2885   1.3036   1.3559   1.3838
     1.4086   1.4474   1.4767   1.4844   1.5164   1.5492   1.5840   1.6075
     1.6230   1.6387   1.6649   1.7008   1.7196   1.7422   1.7582   1.7975
     1.8112   1.8256   1.8906   1.8998   1.9398   1.9553   1.9689   2.0231
     2.0559   2.0749   2.1179   2.2274   2.3196   2.3884   2.5364   2.6301

          k =-0.3750 0.1250 0.3750 (132616 PWs)   bands (ev):

   -18.5922 -18.4825 -18.4164 -18.3457 -18.3345 -18.3271 -18.2777 -18.2729
   -18.2715 -18.2670 -18.2613 -18.2598 -18.2576 -18.2558 -18.2512 -18.2472
   -18.2380 -18.2284 -18.2253 -18.2211 -18.2181 -18.2178 -18.2151 -18.2066
   -18.2060 -18.2049 -18.2047 -18.2003 -18.1997 -18.1978 -18.1934 -18.1903
   -18.1903 -18.1897 -18.1896 -18.1879 -18.1836 -18.1833 -18.1829 -18.1797
   -18.1779 -18.1743 -18.1714 -18.1696 -18.1690 -18.1685 -18.1603 -18.1488
    -9.4708  -9.3193  -9.2765  -9.2145  -9.1774  -9.1074  -9.0715  -9.0291
    -9.0031  -8.9713  -8.9311  -8.9259  -8.8898  -8.8632  -8.8059  -8.7965
    -8.7659  -8.7572  -8.6901  -8.6490  -8.6035  -8.5889  -8.5377  -8.4538
    -5.3574  -5.3505  -5.3433  -5.2551  -5.2525  -5.2330  -5.1906  -5.1897
    -5.1760  -5.1245  -5.1194  -5.1150  -5.1124  -5.1080  -5.1031  -5.0995
    -5.0873  -5.0853  -5.0050  -4.9876  -4.9829  -4.9721  -4.9677  -4.9615
    -4.1955  -3.9841  -3.9418  -3.7326  -3.6345  -3.4180  -3.3636  -3.1281
    -0.7067  -0.6264  -0.5878  -0.4732  -0.3788  -0.2599  -0.2198  -0.0675
    -0.0354   0.0260   0.0908   0.1907   0.3173   0.4648   0.4909   0.5150
     0.5280   0.5613   0.5889   0.6205   0.6548   0.6804   0.7046   0.7532
     0.8186   0.8674   0.8951   0.9568   0.9964   1.0659   1.0716   1.0933
     1.1276   1.1972   1.2296   1.2632   1.2872   1.3215   1.3486   1.3858
     1.3994   1.4412   1.4588   1.5069   1.5142   1.5616   1.5833   1.6042
     1.6215   1.6374   1.6728   1.6875   1.7300   1.7489   1.7733   1.7803
     1.8116   1.8453   1.8584   1.8925   1.9302   1.9448   1.9918   2.0198
     2.0241   2.1059   2.1485   2.1973   2.2991   2.4552   2.5115   2.6128

          k = 0.3750-0.3750 0.1250 (132616 PWs)   bands (ev):

   -18.5922 -18.4825 -18.4164 -18.3457 -18.3345 -18.3271 -18.2777 -18.2729
   -18.2715 -18.2670 -18.2613 -18.2598 -18.2576 -18.2558 -18.2512 -18.2472
   -18.2380 -18.2284 -18.2253 -18.2211 -18.2181 -18.2178 -18.2151 -18.2066
   -18.2060 -18.2049 -18.2047 -18.2003 -18.1997 -18.1978 -18.1934 -18.1903
   -18.1903 -18.1897 -18.1896 -18.1879 -18.1836 -18.1833 -18.1829 -18.1797
   -18.1779 -18.1743 -18.1714 -18.1696 -18.1690 -18.1685 -18.1603 -18.1488
    -9.4704  -9.3188  -9.2704  -9.2140  -9.1884  -9.1047  -9.0865  -9.0339
    -8.9931  -8.9630  -8.9330  -8.9091  -8.8730  -8.8551  -8.8486  -8.8096
    -8.7589  -8.7449  -8.6867  -8.6532  -8.6040  -8.5889  -8.5371  -8.4539
    -5.3574  -5.3505  -5.3434  -5.2551  -5.2525  -5.2331  -5.1905  -5.1896
    -5.1763  -5.1245  -5.1201  -5.1155  -5.1127  -5.1066  -5.1027  -5.1001
    -5.0865  -5.0855  -5.0049  -4.9884  -4.9826  -4.9721  -4.9673  -4.9614
    -4.1848  -3.9795  -3.9430  -3.7312  -3.6301  -3.4217  -3.3799  -3.1547
    -0.6292  -0.5864  -0.5203  -0.5053  -0.3381  -0.2691  -0.1753  -0.1068
    -0.0664  -0.0170   0.0991   0.1669   0.3222   0.4202   0.4616   0.5070
     0.5319   0.5460   0.5786   0.6248   0.6487   0.6850   0.7084   0.7459
     0.8068   0.8721   0.9153   0.9560   0.9981   1.0602   1.0876   1.1131
     1.1663   1.1800   1.2250   1.2500   1.2905   1.3119   1.3400   1.3675
     1.3937   1.4339   1.4651   1.4923   1.5149   1.5500   1.5823   1.6005
     1.6180   1.6551   1.6814   1.6919   1.7174   1.7337   1.7679   1.7781
     1.8037   1.8256   1.8600   1.8968   1.9309   1.9672   1.9888   2.0113
     2.0355   2.0614   2.1145   2.2029   2.3407   2.4405   2.5187   2.6409

          k =-0.3750-0.3750-0.1250 (132616 PWs)   bands (ev):

   -18.5922 -18.4825 -18.4164 -18.3457 -18.3345 -18.3271 -18.2777 -18.2729
   -18.2715 -18.2670 -18.2613 -18.2598 -18.2576 -18.2558 -18.2512 -18.2472
   -18.2380 -18.2284 -18.2253 -18.2211 -18.2181 -18.2178 -18.2151 -18.2066
   -18.2060 -18.2049 -18.2047 -18.2003 -18.1997 -18.1978 -18.1934 -18.1903
   -18.1903 -18.1897 -18.1896 -18.1879 -18.1836 -18.1833 -18.1829 -18.1797
   -18.1779 -18.1743 -18.1714 -18.1696 -18.1690 -18.1685 -18.1603 -18.1488
    -9.4698  -9.3215  -9.2667  -9.2197  -9.1895  -9.0937  -9.0874  -9.0257
    -9.0090  -8.9617  -8.9270  -8.9076  -8.8838  -8.8549  -8.8490  -8.8043
    -8.7624  -8.7429  -8.6851  -8.6525  -8.6039  -8.5906  -8.5368  -8.4539
    -5.3574  -5.3505  -5.3434  -5.2551  -5.2525  -5.2331  -5.1906  -5.1896
    -5.1763  -5.1243  -5.1206  -5.1155  -5.1123  -5.1060  -5.1034  -5.1000
    -5.0865  -5.0855  -5.0049  -4.9883  -4.9827  -4.9720  -4.9673  -4.9613
    -4.1670  -4.0454  -3.8763  -3.7616  -3.6155  -3.4649  -3.3207  -3.1731
    -0.6412  -0.5954  -0.5261  -0.4902  -0.3070  -0.2552  -0.2404  -0.1414
    -0.0419   0.0419   0.1272   0.1716   0.2998   0.4333   0.4429   0.4958
     0.5277   0.5522   0.5670   0.6031   0.6681   0.6791   0.7156   0.7595
     0.7925   0.8505   0.9140   0.9820   1.0093   1.0310   1.0766   1.1196
     1.1835   1.1979   1.2374   1.2566   1.2687   1.2995   1.3333   1.3510
     1.3907   1.4186   1.4586   1.4864   1.5254   1.5544   1.5785   1.6140
     1.6396   1.6647   1.6771   1.7050   1.7153   1.7421   1.7640   1.7831
     1.7901   1.8308   1.8770   1.9025   1.9219   1.9582   1.9660   2.0068
     2.0519   2.0654   2.0978   2.2168   2.3269   2.4254   2.5505   2.6377

          k = 0.3750 0.3750-0.1250 (132616 PWs)   bands (ev):

   -18.5922 -18.4825 -18.4164 -18.3457 -18.3345 -18.3271 -18.2777 -18.2729
   -18.2715 -18.2670 -18.2613 -18.2598 -18.2576 -18.2558 -18.2512 -18.2472
   -18.2380 -18.2284 -18.2253 -18.2211 -18.2181 -18.2178 -18.2151 -18.2066
   -18.2060 -18.2049 -18.2047 -18.2003 -18.1997 -18.1978 -18.1934 -18.1903
   -18.1903 -18.1897 -18.1896 -18.1879 -18.1836 -18.1833 -18.1829 -18.1797
   -18.1779 -18.1743 -18.1714 -18.1696 -18.1690 -18.1685 -18.1603 -18.1488
    -9.4704  -9.3238  -9.2539  -9.2260  -9.1901  -9.1068  -9.0783  -9.0394
    -8.9961  -8.9580  -8.9339  -8.8996  -8.8835  -8.8572  -8.8471  -8.8060
    -8.7603  -8.7463  -8.6845  -8.6538  -8.6049  -8.5887  -8.5367  -8.4540
    -5.3574  -5.3505  -5.3435  -5.2550  -5.2525  -5.2331  -5.1905  -5.1897
    -5.1763  -5.1243  -5.1206  -5.1154  -5.1122  -5.1062  -5.1035  -5.1001
    -5.0865  -5.0854  -5.0049  -4.9883  -4.9827  -4.9721  -4.9673  -4.9614
    -4.1777  -4.0385  -3.8704  -3.7351  -3.6365  -3.4777  -3.3264  -3.1630
    -0.6299  -0.5910  -0.5150  -0.4888  -0.3181  -0.2629  -0.2290  -0.1437
    -0.0533   0.0331   0.0979   0.1497   0.3128   0.4176   0.4590   0.5066
     0.5388   0.5609   0.5780   0.6252   0.6531   0.6565   0.7105   0.7634
     0.8200   0.8511   0.9200   0.9801   0.9900   1.0226   1.0788   1.1248
     1.1826   1.1897   1.2310   1.2556   1.2874   1.3077   1.3302   1.3770
     1.4110   1.4432   1.4520   1.4967   1.5163   1.5413   1.5772   1.5980
     1.6257   1.6487   1.6711   1.6901   1.7070   1.7458   1.7679   1.7887
     1.8121   1.8222   1.8635   1.9089   1.9184   1.9493   1.9662   2.0063
     2.0510   2.0646   2.0984   2.2532   2.3294   2.4328   2.5427   2.6016

          k =-0.3750 0.3750 0.1250 (132616 PWs)   bands (ev):

   -18.5922 -18.4825 -18.4164 -18.3457 -18.3345 -18.3271 -18.2777 -18.2729
   -18.2715 -18.2670 -18.2613 -18.2598 -18.2576 -18.2558 -18.2512 -18.2472
   -18.2380 -18.2284 -18.2253 -18.2211 -18.2181 -18.2178 -18.2151 -18.2066
   -18.2060 -18.2049 -18.2047 -18.2003 -18.1997 -18.1978 -18.1934 -18.1903
   -18.1903 -18.1897 -18.1896 -18.1879 -18.1836 -18.1833 -18.1829 -18.1797
   -18.1779 -18.1743 -18.1714 -18.1696 -18.1690 -18.1685 -18.1603 -18.1488
    -9.4702  -9.3176  -9.2744  -9.2171  -9.1821  -9.1033  -9.0847  -9.0261
    -9.0119  -8.9574  -8.9287  -8.9110  -8.8792  -8.8572  -8.8412  -8.8088
    -8.7580  -8.7459  -8.6884  -8.6509  -8.6050  -8.5890  -8.5371  -8.4538
    -5.3574  -5.3505  -5.3434  -5.2551  -5.2525  -5.2331  -5.1907  -5.1896
    -5.1763  -5.1246  -5.1201  -5.1154  -5.1127  -5.1066  -5.1026  -5.1000
    -5.0865  -5.0854  -5.0051  -4.9883  -4.9826  -4.9721  -4.9673  -4.9613
    -4.1856  -3.9762  -3.9461  -3.7284  -3.6319  -3.4191  -3.3855  -3.1518
    -0.6384  -0.6058  -0.5114  -0.4922  -0.3351  -0.2553  -0.1841  -0.0997
    -0.0642  -0.0132   0.1032   0.1770   0.3065   0.3941   0.4603   0.4963
     0.5143   0.5584   0.5920   0.6143   0.6525   0.6869   0.7223   0.7658
     0.7848   0.8701   0.9141   0.9557   1.0037   1.0497   1.0943   1.1199
     1.1703   1.1957   1.2112   1.2582   1.2930   1.3086   1.3434   1.3704
     1.4031   1.4262   1.4376   1.4643   1.5211   1.5664   1.5790   1.6147
     1.6501   1.6547   1.6878   1.6969   1.7131   1.7309   1.7568   1.7748
     1.8070   1.8204   1.8440   1.8971   1.9348   1.9634   1.9805   2.0173
     2.0288   2.0586   2.1193   2.2344   2.3242   2.4351   2.5416   2.6108

          k =-0.3750-0.3750 0.3750 (132612 PWs)   bands (ev):

   -18.5922 -18.4825 -18.4164 -18.3457 -18.3345 -18.3271 -18.2777 -18.2729
   -18.2715 -18.2670 -18.2613 -18.2598 -18.2576 -18.2558 -18.2512 -18.2472
   -18.2380 -18.2284 -18.2253 -18.2211 -18.2181 -18.2178 -18.2151 -18.2066
   -18.2060 -18.2049 -18.2047 -18.2003 -18.1997 -18.1978 -18.1934 -18.1903
   -18.1903 -18.1897 -18.1896 -18.1879 -18.1836 -18.1833 -18.1829 -18.1797
   -18.1779 -18.1743 -18.1714 -18.1696 -18.1690 -18.1685 -18.1603 -18.1488
    -9.4657  -9.3116  -9.2607  -9.2203  -9.1926  -9.1292  -9.0869  -9.0572
    -8.9919  -8.9544  -8.9364  -8.9004  -8.8801  -8.8493  -8.8135  -8.7976
    -8.7645  -8.7560  -8.6839  -8.6533  -8.6065  -8.5937  -8.5389  -8.4545
    -5.3574  -5.3505  -5.3434  -5.2552  -5.2526  -5.2332  -5.1906  -5.1897
    -5.1763  -5.1243  -5.1202  -5.1151  -5.1128  -5.1064  -5.1033  -5.0993
    -5.0869  -5.0852  -5.0048  -4.9880  -4.9828  -4.9720  -4.9674  -4.9612
    -4.0773  -3.9235  -3.8185  -3.7496  -3.6472  -3.6016  -3.4875  -3.3222
    -0.4712  -0.3715  -0.3260  -0.2849  -0.2287  -0.1919  -0.1380  -0.0863
    -0.0205   0.0234   0.0850   0.1933   0.3174   0.3868   0.4073   0.4786
     0.5029   0.5277   0.5577   0.5831   0.6066   0.6388   0.6531   0.6896
     0.8571   0.8811   0.9053   0.9509   0.9812   1.0096   1.0321   1.0725
     1.0950   1.1206   1.1623   1.1720   1.2057   1.2408   1.2701   1.3087
     1.3924   1.4305   1.4647   1.5186   1.5373   1.5705   1.5998   1.6274
     1.6614   1.6859   1.7020   1.7573   1.7678   1.7771   1.7927   1.8057
     1.8376   1.8552   1.8705   1.8814   1.9122   1.9261   1.9544   1.9709
     2.0015   2.0310   2.0432   2.1093   2.1558   2.2367   2.2613   2.3446

          k =-0.3750 0.3750-0.3750 (132612 PWs)   bands (ev):

   -18.5922 -18.4825 -18.4164 -18.3457 -18.3345 -18.3271 -18.2777 -18.2729
   -18.2715 -18.2670 -18.2613 -18.2598 -18.2576 -18.2558 -18.2512 -18.2472
   -18.2380 -18.2284 -18.2253 -18.2211 -18.2181 -18.2178 -18.2151 -18.2066
   -18.2060 -18.2049 -18.2047 -18.2003 -18.1997 -18.1978 -18.1934 -18.1903
   -18.1903 -18.1897 -18.1896 -18.1879 -18.1836 -18.1833 -18.1829 -18.1797
   -18.1779 -18.1743 -18.1714 -18.1696 -18.1690 -18.1685 -18.1603 -18.1488
    -9.4656  -9.3138  -9.2534  -9.2244  -9.1974  -9.1231  -9.0923  -9.0514
    -8.9938  -8.9547  -8.9358  -8.9091  -8.8694  -8.8510  -8.8154  -8.7988
    -8.7657  -8.7520  -8.6864  -8.6530  -8.6040  -8.5952  -8.5391  -8.4545
    -5.3574  -5.3505  -5.3434  -5.2553  -5.2525  -5.2332  -5.1906  -5.1897
    -5.1763  -5.1245  -5.1198  -5.1152  -5.1131  -5.1069  -5.1027  -5.0993
    -5.0869  -5.0853  -5.0048  -4.9881  -4.9827  -4.9720  -4.9674  -4.9613
    -4.0685  -3.9401  -3.8119  -3.7341  -3.6814  -3.5947  -3.4656  -3.3306
    -0.4690  -0.3874  -0.3086  -0.2888  -0.2463  -0.2159  -0.1082  -0.0931
    -0.0251   0.0215   0.1038   0.2460   0.3326   0.3949   0.4083   0.4557
     0.4877   0.5176   0.5386   0.5690   0.6075   0.6182   0.6605   0.6996
     0.8636   0.8810   0.9227   0.9441   0.9811   1.0044   1.0285   1.0750
     1.0913   1.1362   1.1500   1.1780   1.2135   1.2419   1.2657   1.2912
     1.3840   1.4327   1.4602   1.5015   1.5367   1.5906   1.6068   1.6324
     1.6627   1.6826   1.7096   1.7397   1.7551   1.7708   1.7972   1.8132
     1.8293   1.8548   1.8721   1.8956   1.9220   1.9318   1.9508   1.9929
     2.0107   2.0344   2.0605   2.1210   2.1529   2.1717   2.2243   2.3949

          k = 0.3750-0.3750-0.3750 (132612 PWs)   bands (ev):

   -18.5922 -18.4825 -18.4164 -18.3457 -18.3345 -18.3271 -18.2777 -18.2729
   -18.2715 -18.2670 -18.2613 -18.2598 -18.2576 -18.2558 -18.2512 -18.2472
   -18.2380 -18.2284 -18.2253 -18.2211 -18.2181 -18.2178 -18.2151 -18.2066
   -18.2060 -18.2049 -18.2047 -18.2003 -18.1997 -18.1978 -18.1934 -18.1903
   -18.1903 -18.1897 -18.1896 -18.1879 -18.1836 -18.1833 -18.1829 -18.1797
   -18.1779 -18.1743 -18.1714 -18.1696 -18.1690 -18.1685 -18.1603 -18.1488
    -9.4653  -9.3126  -9.2594  -9.2265  -9.1899  -9.1229  -9.0868  -9.0563
    -8.9978  -8.9537  -8.9352  -8.9079  -8.8729  -8.8520  -8.8102  -8.7992
    -8.7638  -8.7539  -8.6884  -8.6503  -8.6055  -8.5951  -8.5391  -8.4544
    -5.3574  -5.3505  -5.3434  -5.2553  -5.2525  -5.2332  -5.1907  -5.1897
    -5.1763  -5.1246  -5.1198  -5.1151  -5.1132  -5.1068  -5.1026  -5.0992
    -5.0870  -5.0853  -5.0049  -4.9880  -4.9827  -4.9720  -4.9674  -4.9612
    -4.0713  -3.9338  -3.8183  -3.7355  -3.6748  -3.5908  -3.4787  -3.3236
    -0.4878  -0.3781  -0.3443  -0.2894  -0.2240  -0.1587  -0.1489  -0.0718
    -0.0114   0.0321   0.0991   0.2580   0.3176   0.3410   0.4015   0.4435
     0.4826   0.5232   0.5406   0.5677   0.6111   0.6452   0.6800   0.7011
     0.8334   0.8861   0.8961   0.9399   0.9933   1.0182   1.0481   1.0722
     1.0891   1.1238   1.1641   1.1922   1.2064   1.2458   1.2645   1.2858
     1.3911   1.4266   1.4751   1.5080   1.5229   1.5853   1.6056   1.6407
     1.6604   1.6875   1.7077   1.7432   1.7530   1.7730   1.7919   1.8127
     1.8301   1.8449   1.8653   1.9020   1.9141   1.9284   1.9534   1.9757
     2.0053   2.0395   2.0856   2.1057   2.1340   2.2259   2.2550   2.3402

     highest occupied level (ev):     3.1569

!    total energy              =   -2256.30598765 Ry
     estimated scf accuracy    <          5.4E-11 Ry

     The total energy is the sum of the following terms:
     one-electron contribution =    -981.89049443 Ry
     hartree contribution      =     619.06697759 Ry
     xc contribution           =    -647.43456964 Ry
     ewald contribution        =   -1246.04790118 Ry

     convergence has been achieved in  15 iterations

     Forces acting on atoms (cartesian axes, Ry/au):

     atom    1 type  1   force =     0.00173397   -0.00135182   -0.00196137
     atom    2 type  2   force =    -0.02335983   -0.01166161    0.01299857
     atom    3 type  3   force =     0.01859558    0.00321229   -0.00148541
     atom    4 type  3   force =     0.01047941    0.00029158   -0.01058038
     atom    5 type  3   force =    -0.00226691    0.01340843   -0.00121953
     atom    6 type  1   force =    -0.00181432    0.00433383   -0.00188656
     atom    7 type  2   force =    -0.00690020    0.01386624   -0.04274881
     atom    8 type  3   force =    -0.00542025   -0.00268062    0.00427063
     atom    9 type  3   force =    -0.00072792   -0.00109430    0.04028746
     atom   10 type  3   force =    -0.00098702   -0.00205229   -0.00577769
     atom   11 type  1   force =     0.00166619   -0.00110435    0.00085478
     atom   12 type  2   force =     0.00162215    0.00722605    0.00349566
     atom   13 type  3   force =     0.00044239    0.00278662    0.00054258
     atom   14 type  3   force =    -0.00058054   -0.00832905   -0.00641947
     atom   15 type  3   force =    -0.00265116   -0.00818520   -0.00311332
     atom   16 type  1   force =    -0.00058546   -0.00294644    0.00201013
     atom   17 type  2   force =     0.01236260    0.00254608   -0.00186729
     atom   18 type  3   force =    -0.00123398   -0.00386510    0.00393510
     atom   19 type  3   force =    -0.00121228    0.00022536    0.00853598
     atom   20 type  3   force =     0.00622076   -0.00244378    0.00225913
     atom   21 type  1   force =    -0.00099459   -0.00083479   -0.00120113
     atom   22 type  2   force =     0.00997720   -0.01968212    0.01436719
     atom   23 type  3   force =    -0.01234250    0.00708007   -0.00926605
     atom   24 type  3   force =     0.00779540    0.00173473    0.00944202
     atom   25 type  3   force =     0.00244936   -0.00016762   -0.00166723
     atom   26 type  1   force =    -0.00201337    0.00127812    0.00085213
     atom   27 type  2   force =    -0.01059324   -0.00108854   -0.00981207
     atom   28 type  3   force =     0.00047178    0.00553555    0.00275074
     atom   29 type  3   force =     0.00443440   -0.00149707   -0.00946922
     atom   30 type  3   force =     0.00355953   -0.00336168   -0.00167233
     atom   31 type  1   force =    -0.00020449    0.00215249   -0.00254837
     atom   32 type  2   force =     0.00422910    0.00591787   -0.00904509
     atom   33 type  3   force =    -0.00024829   -0.00495051    0.00170819
     atom   34 type  3   force =     0.00534428    0.00041412   -0.00387570
     atom   35 type  3   force =    -0.00498164   -0.00794311   -0.00314527
     atom   36 type  1   force =     0.00077123    0.00155408    0.00007399
     atom   37 type  2   force =    -0.01550538    0.00242727    0.01950049
     atom   38 type  3   force =    -0.00101827   -0.00173734   -0.00211250
     atom   39 type  3   force =    -0.00027222    0.00286327    0.00299906
     atom   40 type  3   force =     0.00375853    0.00812333   -0.00000903

     Total force =     0.092917     Total SCF correction =     0.000038


     Computing stress (Cartesian axis) and pressure

          total   stress  (Ry/bohr**3)                   (kbar)     P=       -8.24
  -0.00006194   0.00000050   0.00000013           -9.11        0.07        0.02
   0.00000050  -0.00005507  -0.00000261            0.07       -8.10       -0.38
   0.00000013  -0.00000261  -0.00005111            0.02       -0.38       -7.52

 
     init_run     :     19.71s CPU     17.05s WALL (       1 calls)
     electrons    :    201.91s CPU    212.19s WALL (       1 calls)
     forces       :      8.80s CPU      3.96s WALL (       1 calls)
     stress       :     32.08s CPU     31.40s WALL (       1 calls)

     Called by init_run:
     wfcinit      :     11.76s CPU     13.99s WALL (       1 calls)
                                       13.99s GPU  (       1 calls)
     potinit      :      4.61s CPU      1.41s WALL (       1 calls)
     hinit0       :      2.80s CPU      0.98s WALL (       1 calls)

     Called by electrons:
     c_bands      :    120.66s CPU    169.72s WALL (      16 calls)
     sum_band     :     21.91s CPU     21.13s WALL (      16 calls)
                                       21.13s GPU  (      16 calls)
     v_of_rho     :     55.02s CPU     16.66s WALL (      16 calls)
     mix_rho      :      6.46s CPU      4.98s WALL (      16 calls)

     Called by c_bands:
     init_us_2    :      2.23s CPU      3.01s WALL (     280 calls)
                                        3.01s GPU  (     280 calls)
     cegterg      :     79.72s CPU    126.49s WALL (     128 calls)

     Called by *egterg:
     cdiaghg      :     13.89s CPU     25.70s WALL (     642 calls)
                                       25.66s GPU  (     642 calls)
     h_psi        :     53.85s CPU     72.74s WALL (     658 calls)
                                       72.31s GPU  (     658 calls)
     g_psi        :      0.00s CPU      0.35s WALL (     522 calls)
                                        0.35s GPU  (     522 calls)

     Called by h_psi:
     h_psi:calbec :      0.35s CPU      9.86s WALL (     658 calls)
                                        9.85s GPU  (     658 calls)
     vloc_psi     :     39.33s CPU     53.02s WALL (     658 calls)
                                       52.11s GPU  (     658 calls)
     add_vuspsi   :      0.33s CPU      9.78s WALL (     658 calls)
                                        9.77s GPU  (     658 calls)

     General routines
     calbec       :      0.35s CPU      0.40s WALL (     698 calls)
     fft          :     25.58s CPU      6.53s WALL (     185 calls)
                                        0.00s GPU  (       6 calls)
     ffts         :      2.65s CPU      0.68s WALL (      16 calls)
     fftw         :      0.61s CPU     61.58s WALL (   10302 calls)
                                       46.02s GPU  (   10302 calls)
 
     Parallel routines
 
     PWSCF        :   4m23.43s CPU   4m25.61s WALL

 
   This run was terminated on:   0:19:44  23Apr2021            

=------------------------------------------------------------------------------=
   JOB DONE.
=------------------------------------------------------------------------------=
