
     Program PWSCF v.6.7MaX starts on 22Apr2021 at 20:53:21 

     This program is part of the open-source Quantum ESPRESSO suite
     for quantum simulation of materials; please cite
         "P. Giannozzi et al., J. Phys.:Condens. Matter 21 395502 (2009);
         "P. Giannozzi et al., J. Phys.:Condens. Matter 29 465901 (2017);
         "P. Giannozzi et al., J. Chem. Phys. 152 154105 (2020);
          URL http://www.quantum-espresso.org", 
     in publications or presentations arising from this work. More details at
     http://www.quantum-espresso.org/quote

     Parallel version (MPI & OpenMP), running on      16 processor cores
     Number of MPI processes:                 4
     Threads/MPI process:                     4

     MPI processes distributed on     1 nodes
     K-points division:     npool     =       4
     Reading input from ESP_7.pwi
Warning: card &CELL ignored
Warning: card / ignored

     Current dimensions of program PWSCF are:
     Max number of different atomic species (ntypx) = 10
     Max number of k-points (npk) =  40000
     Max angular momentum in pseudopotentials (lmaxx) =  3
     Message from routine read_pp_mesh:
     mesh size missing, using the one in header
     Message from routine read_pp_mesh:
     mesh size missing, using the one in header
     Message from routine read_pp_mesh:
     mesh size missing, using the one in header

     Subspace diagonalization in iterative solution of the eigenvalue problem:
     a serial algorithm will be used

 
     G-vector sticks info
     --------------------
     sticks:   dense  smooth     PW     G-vecs:    dense   smooth      PW
     Sum       12589   12589   3289              1061107  1061107  140905
 
     Using Slab Decomposition
 


     bravais-lattice index     =            0
     lattice parameter (alat)  =      23.7585  a.u.
     unit-cell volume          =   13410.8736 (a.u.)^3
     number of atoms/cell      =           40
     number of atomic types    =            3
     number of electrons       =       352.00
     number of Kohn-Sham states=          176
     kinetic-energy cutoff     =      70.0000  Ry
     charge density cutoff     =     280.0000  Ry
     scf convergence threshold =      1.0E-10
     mixing beta               =       0.7000
     number of iterations used =            8  plain     mixing
     Exchange-correlation= PBESOL
                           (   1   4  10   8   0   0   0)

     GPU acceleration is ACTIVE.


     celldm(1)=  23.758500  celldm(2)=   0.000000  celldm(3)=   0.000000
     celldm(4)=   0.000000  celldm(5)=   0.000000  celldm(6)=   0.000000

     crystal axes: (cart. coord. in units of alat)
               a(1) = (   1.000000   0.000000   0.000000 )  
               a(2) = (   0.000000   1.000000   0.000000 )  
               a(3) = (   0.000000   0.000000   1.000000 )  

     reciprocal axes: (cart. coord. in units 2 pi/alat)
               b(1) = (  1.000000  0.000000  0.000000 )  
               b(2) = (  0.000000  1.000000  0.000000 )  
               b(3) = (  0.000000  0.000000  1.000000 )  


     PseudoPot. # 1 for Cs read from file:
     /m100/home/userexternal/lmonacel/espresso/pseudo/Cs-nc-pbesol.upf
     MD5 check sum: 9d2f2206a14dc5b3b3f3fbfae186bed4
     Pseudo is Norm-conserving + core correction, Zval =  9.0
     Generated using ONCVPSP code by D. R. Hamann
     Using radial grid of 2384 points,  8 beta functions with: 
                l(1) =   0
                l(2) =   0
                l(3) =   1
                l(4) =   1
                l(5) =   2
                l(6) =   2
                l(7) =   3
                l(8) =   3

     PseudoPot. # 2 for Sn read from file:
     /m100/home/userexternal/lmonacel/espresso/pseudo/Sn-nc-pbesol.upf
     MD5 check sum: c2995d571af40102bfea7461443d92cf
     Pseudo is Norm-conserving + core correction, Zval = 14.0
     Generated using ONCVPSP code by D. R. Hamann
     Using radial grid of 1628 points,  6 beta functions with: 
                l(1) =   0
                l(2) =   0
                l(3) =   1
                l(4) =   1
                l(5) =   2
                l(6) =   2

     PseudoPot. # 3 for I  read from file:
     /m100/home/userexternal/lmonacel/espresso/pseudo/I-nc-pbesol.upf
     MD5 check sum: 80ed5ceb2eb9c553cfb6760a299d9c5b
     Pseudo is Norm-conserving + core correction, Zval =  7.0
     Generated using ONCVPSP code by D. R. Hamann
     Using radial grid of 1182 points,  6 beta functions with: 
                l(1) =   0
                l(2) =   0
                l(3) =   1
                l(4) =   1
                l(5) =   2
                l(6) =   2

     atomic species   valence    mass     pseudopotential
        Cs             9.00   132.90545     Cs( 1.00)
        Sn            14.00   118.71000     Sn( 1.00)
        I              7.00   126.90447     I ( 1.00)

     No symmetry found



   Cartesian axes

     site n.     atom                  positions (alat units)
         1           Cs  tau(   1) = (   0.2602399   0.1858070   0.2093766  )
         2           Sn  tau(   2) = (  -0.0147338   0.0164896   0.0116778  )
         3           I   tau(   3) = (   0.2507498   0.0167481   0.0235583  )
         4           I   tau(   4) = (  -0.0069782  -0.0344950   0.2427110  )
         5           I   tau(   5) = (  -0.0171019   0.2676012   0.0082252  )
         6           Cs  tau(   6) = (   0.2645972   0.2683767   0.7565057  )
         7           Sn  tau(   7) = (   0.0090066  -0.0004745   0.5035632  )
         8           I   tau(   8) = (   0.2551020   0.0184898   0.4869538  )
         9           I   tau(   9) = (  -0.0028724   0.0021932   0.7352488  )
        10           I   tau(  10) = (  -0.0051561   0.2547759   0.4985014  )
        11           Cs  tau(  11) = (   0.2475427   0.7521073   0.2304082  )
        12           Sn  tau(  12) = (  -0.0150200   0.5034595   0.0041122  )
        13           I   tau(  13) = (   0.2405951   0.4858876  -0.0130244  )
        14           I   tau(  14) = (  -0.0047522   0.4918591   0.2432909  )
        15           I   tau(  15) = (   0.0081734   0.7692591  -0.0244184  )
        16           Cs  tau(  16) = (   0.2431710   0.7379473   0.7575510  )
        17           Sn  tau(  17) = (   0.0172759   0.4975270   0.4914001  )
        18           I   tau(  18) = (   0.2663160   0.4627196   0.4916715  )
        19           I   tau(  19) = (  -0.0082556   0.5048184   0.7378134  )
        20           I   tau(  20) = (  -0.0001281   0.7427420   0.4940913  )
        21           Cs  tau(  21) = (   0.7084105   0.2902706   0.2939869  )
        22           Sn  tau(  22) = (   0.4803314   0.0134466  -0.0104945  )
        23           I   tau(  23) = (   0.7433538  -0.0014494  -0.0304536  )
        24           I   tau(  24) = (   0.5096945   0.0041073   0.2450522  )
        25           I   tau(  25) = (   0.5058796   0.2516352  -0.0008178  )
        26           Cs  tau(  26) = (   0.7996886   0.2764488   0.7516065  )
        27           Sn  tau(  27) = (   0.5072665   0.0034987   0.4969174  )
        28           I   tau(  28) = (   0.7443028   0.0020442   0.5339133  )
        29           I   tau(  29) = (   0.4684060   0.0076217   0.7464968  )
        30           I   tau(  30) = (   0.5003703   0.2430396   0.4998062  )
        31           Cs  tau(  31) = (   0.7513266   0.7013902   0.2527615  )
        32           Sn  tau(  32) = (   0.4887609   0.5106491   0.0111546  )
        33           I   tau(  33) = (   0.7367926   0.5243936  -0.0039716  )
        34           I   tau(  34) = (   0.4947759   0.4577857   0.2435611  )
        35           I   tau(  35) = (   0.5028230   0.7432343  -0.0065149  )
        36           Cs  tau(  36) = (   0.7632948   0.7608746   0.7913908  )
        37           Sn  tau(  37) = (   0.5226043   0.5009801   0.5168460  )
        38           I   tau(  38) = (   0.7680206   0.5151301   0.5141702  )
        39           I   tau(  39) = (   0.5058317   0.5044713   0.7474297  )
        40           I   tau(  40) = (   0.5081935   0.7507979   0.5175060  )

     number of k points=    32
                       cart. coord. in units 2pi/alat
        k(    1) = (   0.1250000   0.1250000   0.1250000), wk =   0.0625000
        k(    2) = (   0.1250000   0.1250000   0.3750000), wk =   0.0625000
        k(    3) = (   0.1250000   0.3750000   0.3750000), wk =   0.0625000
        k(    4) = (   0.3750000   0.3750000   0.3750000), wk =   0.0625000
        k(    5) = (  -0.1250000  -0.1250000   0.1250000), wk =   0.0625000
        k(    6) = (  -0.1250000   0.1250000  -0.1250000), wk =   0.0625000
        k(    7) = (   0.1250000  -0.1250000  -0.1250000), wk =   0.0625000
        k(    8) = (  -0.1250000  -0.1250000   0.3750000), wk =   0.0625000
        k(    9) = (  -0.1250000   0.1250000  -0.3750000), wk =   0.0625000
        k(   10) = (   0.1250000  -0.1250000  -0.3750000), wk =   0.0625000
        k(   11) = (   0.3750000  -0.1250000   0.1250000), wk =   0.0625000
        k(   12) = (  -0.3750000  -0.1250000  -0.1250000), wk =   0.0625000
        k(   13) = (   0.3750000   0.1250000  -0.1250000), wk =   0.0625000
        k(   14) = (  -0.3750000   0.1250000   0.1250000), wk =   0.0625000
        k(   15) = (  -0.1250000   0.3750000   0.1250000), wk =   0.0625000
        k(   16) = (  -0.1250000  -0.3750000  -0.1250000), wk =   0.0625000
        k(   17) = (   0.1250000   0.3750000  -0.1250000), wk =   0.0625000
        k(   18) = (   0.1250000  -0.3750000   0.1250000), wk =   0.0625000
        k(   19) = (  -0.1250000  -0.3750000   0.3750000), wk =   0.0625000
        k(   20) = (  -0.1250000   0.3750000  -0.3750000), wk =   0.0625000
        k(   21) = (   0.1250000  -0.3750000  -0.3750000), wk =   0.0625000
        k(   22) = (   0.3750000   0.1250000  -0.3750000), wk =   0.0625000
        k(   23) = (  -0.3750000  -0.1250000  -0.3750000), wk =   0.0625000
        k(   24) = (   0.3750000  -0.1250000   0.3750000), wk =   0.0625000
        k(   25) = (  -0.3750000   0.1250000   0.3750000), wk =   0.0625000
        k(   26) = (   0.3750000  -0.3750000   0.1250000), wk =   0.0625000
        k(   27) = (  -0.3750000  -0.3750000  -0.1250000), wk =   0.0625000
        k(   28) = (   0.3750000   0.3750000  -0.1250000), wk =   0.0625000
        k(   29) = (  -0.3750000   0.3750000   0.1250000), wk =   0.0625000
        k(   30) = (  -0.3750000  -0.3750000   0.3750000), wk =   0.0625000
        k(   31) = (  -0.3750000   0.3750000  -0.3750000), wk =   0.0625000
        k(   32) = (   0.3750000  -0.3750000  -0.3750000), wk =   0.0625000

     Dense  grid:  1061107 G-vectors     FFT dimensions: ( 128, 128, 128)

     Estimated max dynamical RAM per process >       6.82 GB

     Estimated total dynamical RAM >      27.27 GB

     Initial potential from superposition of free atoms

     starting charge  351.69472, renormalised to  352.00000
     Starting wfcs are  208 randomized atomic wfcs

     total cpu time spent up to now is       17.7 secs

     Self-consistent Calculation

     iteration #  1     ecut=    70.00 Ry     beta= 0.70
     Davidson diagonalization with overlap
     ethr =  1.00E-02,  avg # of iterations =  2.0

     Threshold (ethr) on eigenvalues was too large:
     Diagonalizing with lowered threshold

     Davidson diagonalization with overlap
     ethr =  2.12E-04,  avg # of iterations =  4.0

     total cpu time spent up to now is       38.5 secs

     total energy              =   -2256.01458131 Ry
     estimated scf accuracy    <       0.64646758 Ry

     iteration #  2     ecut=    70.00 Ry     beta= 0.70
     Davidson diagonalization with overlap
     ethr =  1.84E-04,  avg # of iterations =  3.3

     total cpu time spent up to now is       51.2 secs

     total energy              =   -2256.21589412 Ry
     estimated scf accuracy    <       0.28363201 Ry

     iteration #  3     ecut=    70.00 Ry     beta= 0.70
     Davidson diagonalization with overlap
     ethr =  8.06E-05,  avg # of iterations =  2.6

     total cpu time spent up to now is       63.0 secs

     total energy              =   -2256.27073105 Ry
     estimated scf accuracy    <       0.01494864 Ry

     iteration #  4     ecut=    70.00 Ry     beta= 0.70
     Davidson diagonalization with overlap
     ethr =  4.25E-06,  avg # of iterations =  3.7

     total cpu time spent up to now is       77.0 secs

     total energy              =   -2256.27674684 Ry
     estimated scf accuracy    <       0.00462767 Ry

     iteration #  5     ecut=    70.00 Ry     beta= 0.70
     Davidson diagonalization with overlap
     ethr =  1.31E-06,  avg # of iterations =  4.0

     total cpu time spent up to now is       89.5 secs

     total energy              =   -2256.27760818 Ry
     estimated scf accuracy    <       0.00125296 Ry

     iteration #  6     ecut=    70.00 Ry     beta= 0.70
     Davidson diagonalization with overlap
     ethr =  3.56E-07,  avg # of iterations =  3.0

     total cpu time spent up to now is      101.5 secs

     total energy              =   -2256.27781930 Ry
     estimated scf accuracy    <       0.00016360 Ry

     iteration #  7     ecut=    70.00 Ry     beta= 0.70
     Davidson diagonalization with overlap
     ethr =  4.65E-08,  avg # of iterations =  4.1

     total cpu time spent up to now is      115.6 secs

     total energy              =   -2256.27787858 Ry
     estimated scf accuracy    <       0.00002462 Ry

     iteration #  8     ecut=    70.00 Ry     beta= 0.70
     Davidson diagonalization with overlap
     ethr =  7.00E-09,  avg # of iterations =  4.2

     total cpu time spent up to now is      128.9 secs

     total energy              =   -2256.27788698 Ry
     estimated scf accuracy    <       0.00000402 Ry

     iteration #  9     ecut=    70.00 Ry     beta= 0.70
     Davidson diagonalization with overlap
     ethr =  1.14E-09,  avg # of iterations =  4.0

     total cpu time spent up to now is      142.8 secs

     total energy              =   -2256.27788839 Ry
     estimated scf accuracy    <       0.00000057 Ry

     iteration # 10     ecut=    70.00 Ry     beta= 0.70
     Davidson diagonalization with overlap
     ethr =  1.61E-10,  avg # of iterations =  3.7

     total cpu time spent up to now is      158.0 secs

     total energy              =   -2256.27788864 Ry
     estimated scf accuracy    <       0.00000014 Ry

     iteration # 11     ecut=    70.00 Ry     beta= 0.70
     Davidson diagonalization with overlap
     ethr =  3.89E-11,  avg # of iterations =  4.5

     total cpu time spent up to now is      172.4 secs

     total energy              =   -2256.27788870 Ry
     estimated scf accuracy    <       0.00000002 Ry

     iteration # 12     ecut=    70.00 Ry     beta= 0.70
     Davidson diagonalization with overlap
     ethr =  6.11E-12,  avg # of iterations =  6.4

     total cpu time spent up to now is      189.7 secs

     total energy              =   -2256.27788871 Ry
     estimated scf accuracy    <       0.00000001 Ry

     iteration # 13     ecut=    70.00 Ry     beta= 0.70
     Davidson diagonalization with overlap
     ethr =  3.10E-12,  avg # of iterations =  3.3

     total cpu time spent up to now is      202.0 secs

     total energy              =   -2256.27788872 Ry
     estimated scf accuracy    <          8.3E-10 Ry

     iteration # 14     ecut=    70.00 Ry     beta= 0.70
     Davidson diagonalization with overlap
     ethr =  2.37E-13,  avg # of iterations =  5.9

     total cpu time spent up to now is      219.2 secs

     total energy              =   -2256.27788872 Ry
     estimated scf accuracy    <          3.4E-10 Ry

     iteration # 15     ecut=    70.00 Ry     beta= 0.70
     Davidson diagonalization with overlap
     ethr =  1.00E-13,  avg # of iterations =  3.0

     total cpu time spent up to now is      231.0 secs

     End of self-consistent calculation

          k = 0.1250 0.1250 0.1250 (132670 PWs)   bands (ev):

   -18.6877 -18.5377 -18.4850 -18.3714 -18.3656 -18.3611 -18.3541 -18.3528
   -18.3437 -18.3428 -18.3426 -18.3420 -18.3310 -18.3270 -18.2800 -18.2747
   -18.2720 -18.2637 -18.2607 -18.2452 -18.2431 -18.2230 -18.2059 -18.2000
   -18.1968 -18.1951 -18.1895 -18.1882 -18.1838 -18.1837 -18.1786 -18.1704
   -18.1594 -18.1574 -18.1557 -18.1519 -18.1494 -18.1451 -18.1447 -18.1386
   -18.1368 -18.1321 -18.1309 -18.0322 -18.0188 -18.0155 -18.0087 -17.9995
    -9.5869  -9.4530  -9.3342  -9.2460  -9.1501  -9.1114  -9.0939  -9.0565
    -9.0419  -9.0195  -8.9657  -8.9256  -8.9129  -8.8585  -8.8257  -8.7666
    -8.7630  -8.7246  -8.7129  -8.6816  -8.6646  -8.6081  -8.5506  -8.4854
    -5.4408  -5.4359  -5.4303  -5.3168  -5.3038  -5.2939  -5.2518  -5.2420
    -5.2251  -5.1486  -5.1336  -5.1322  -5.1200  -5.0768  -5.0746  -5.0698
    -5.0630  -5.0494  -5.0485  -4.9760  -4.9516  -4.9254  -4.9241  -4.9200
    -4.4722  -3.9604  -3.9302  -3.8999  -3.3866  -3.3697  -3.3195  -2.7328
    -0.7982  -0.7716  -0.7045  -0.6467  -0.6005  -0.5642  -0.5121  -0.4772
    -0.4536  -0.3988  -0.2446  -0.1749   0.4081   0.4384   0.4858   0.6018
     0.6346   0.6735   0.7221   0.7637   0.7906   0.8644   0.9004   0.9250
     0.9654   1.0155   1.0441   1.0717   1.0973   1.1264   1.1482   1.1717
     1.2048   1.2506   1.2615   1.2935   1.3022   1.3376   1.3500   1.3850
     1.3934   1.4236   1.4453   1.4722   1.4918   1.5087   1.5306   1.5457
     1.5622   1.5918   1.6315   1.6551   1.6887   1.7077   1.7220   1.7560
     1.7747   1.8247   1.8529   1.9394   1.9935   2.0361   2.0766   2.1221
     2.1666   2.2108   2.2516   2.3059   2.6221   2.7576   2.8352   3.1726

          k = 0.1250 0.1250 0.3750 (132608 PWs)   bands (ev):

   -18.6877 -18.5377 -18.4850 -18.3714 -18.3656 -18.3611 -18.3541 -18.3528
   -18.3437 -18.3428 -18.3426 -18.3420 -18.3310 -18.3270 -18.2800 -18.2747
   -18.2720 -18.2637 -18.2607 -18.2452 -18.2431 -18.2230 -18.2059 -18.2000
   -18.1968 -18.1951 -18.1895 -18.1882 -18.1838 -18.1837 -18.1786 -18.1704
   -18.1594 -18.1574 -18.1557 -18.1519 -18.1494 -18.1451 -18.1447 -18.1386
   -18.1368 -18.1321 -18.1309 -18.0322 -18.0188 -18.0155 -18.0087 -17.9995
    -9.5852  -9.4417  -9.3336  -9.2685  -9.1540  -9.1067  -9.0819  -9.0703
    -9.0557  -9.0187  -8.9641  -8.9277  -8.9161  -8.8369  -8.8138  -8.7651
    -8.7620  -8.7197  -8.6992  -8.6833  -8.6713  -8.6235  -8.5543  -8.4859
    -5.4407  -5.4358  -5.4302  -5.3168  -5.3037  -5.2935  -5.2520  -5.2421
    -5.2253  -5.1483  -5.1333  -5.1310  -5.1207  -5.0769  -5.0745  -5.0698
    -5.0632  -5.0496  -5.0484  -4.9756  -4.9516  -4.9253  -4.9242  -4.9201
    -4.3583  -4.0912  -3.8241  -3.8070  -3.5503  -3.5151  -3.2289  -2.9433
    -0.7812  -0.7394  -0.6330  -0.5954  -0.5652  -0.5159  -0.4256  -0.2873
    -0.1676  -0.1224  -0.0327   0.0817   0.3942   0.4311   0.4565   0.5045
     0.5561   0.5890   0.6273   0.6411   0.6851   0.7295   0.7453   0.7925
     0.8608   0.8921   0.9415   0.9732   1.0560   1.0838   1.1307   1.1570
     1.2049   1.2299   1.2581   1.2793   1.3106   1.3349   1.3619   1.3886
     1.4183   1.4338   1.4610   1.4740   1.4911   1.5154   1.5411   1.5670
     1.6182   1.6252   1.6431   1.6657   1.6912   1.7342   1.7696   1.7962
     1.8058   1.8397   1.8585   1.8892   1.9198   1.9640   1.9887   2.0201
     2.0832   2.2197   2.2391   2.2748   2.4262   2.5665   2.7438   2.9459

          k = 0.1250 0.3750 0.3750 (132616 PWs)   bands (ev):

   -18.6877 -18.5377 -18.4850 -18.3714 -18.3656 -18.3611 -18.3541 -18.3528
   -18.3437 -18.3428 -18.3426 -18.3420 -18.3310 -18.3270 -18.2800 -18.2747
   -18.2720 -18.2637 -18.2607 -18.2452 -18.2431 -18.2230 -18.2059 -18.2000
   -18.1968 -18.1951 -18.1895 -18.1882 -18.1838 -18.1837 -18.1786 -18.1704
   -18.1594 -18.1573 -18.1557 -18.1519 -18.1494 -18.1451 -18.1447 -18.1386
   -18.1368 -18.1321 -18.1309 -18.0322 -18.0188 -18.0155 -18.0087 -17.9995
    -9.5799  -9.4471  -9.3283  -9.2630  -9.1612  -9.1123  -9.0932  -9.0784
    -9.0546  -9.0133  -8.9784  -8.9230  -8.9027  -8.8406  -8.8070  -8.7608
    -8.7419  -8.7238  -8.7024  -8.6854  -8.6746  -8.6236  -8.5439  -8.4999
    -5.4407  -5.4358  -5.4302  -5.3167  -5.3037  -5.2935  -5.2521  -5.2420
    -5.2253  -5.1484  -5.1332  -5.1311  -5.1205  -5.0769  -5.0736  -5.0699
    -5.0636  -5.0495  -5.0482  -4.9752  -4.9515  -4.9258  -4.9242  -4.9197
    -4.2395  -4.0005  -3.9467  -3.7077  -3.6922  -3.4464  -3.3789  -3.1531
    -0.7466  -0.6779  -0.5566  -0.4261  -0.3850  -0.3221  -0.1847  -0.1486
    -0.0967   0.0036   0.0629   0.1591   0.2930   0.3964   0.4604   0.5022
     0.5208   0.5402   0.5788   0.5954   0.6187   0.6525   0.6704   0.7312
     0.8009   0.8674   0.9190   0.9506   0.9796   1.0348   1.0484   1.0815
     1.1060   1.1557   1.1788   1.2540   1.2609   1.2872   1.3366   1.3741
     1.3920   1.4195   1.4295   1.4668   1.4933   1.5481   1.5866   1.6006
     1.6266   1.6514   1.6821   1.7029   1.7391   1.7670   1.7879   1.8126
     1.8306   1.8393   1.8797   1.8927   1.9099   1.9445   1.9564   1.9927
     2.0131   2.0771   2.1461   2.2055   2.2521   2.4133   2.4996   2.6448

          k = 0.3750 0.3750 0.3750 (132612 PWs)   bands (ev):

   -18.6877 -18.5377 -18.4850 -18.3714 -18.3656 -18.3611 -18.3541 -18.3528
   -18.3437 -18.3428 -18.3426 -18.3420 -18.3310 -18.3270 -18.2800 -18.2747
   -18.2720 -18.2637 -18.2607 -18.2452 -18.2431 -18.2230 -18.2059 -18.2000
   -18.1968 -18.1951 -18.1895 -18.1882 -18.1838 -18.1837 -18.1786 -18.1704
   -18.1594 -18.1573 -18.1557 -18.1519 -18.1494 -18.1451 -18.1447 -18.1386
   -18.1368 -18.1321 -18.1309 -18.0322 -18.0188 -18.0155 -18.0087 -17.9995
    -9.5773  -9.4323  -9.3504  -9.2560  -9.1797  -9.1255  -9.0827  -9.0705
    -9.0407  -9.0083  -8.9983  -8.9199  -8.8965  -8.8491  -8.8061  -8.7568
    -8.7445  -8.7225  -8.6988  -8.6873  -8.6566  -8.6241  -8.5440  -8.5111
    -5.4407  -5.4358  -5.4301  -5.3168  -5.3039  -5.2936  -5.2519  -5.2420
    -5.2251  -5.1484  -5.1333  -5.1311  -5.1203  -5.0767  -5.0741  -5.0699
    -5.0634  -5.0495  -5.0482  -4.9747  -4.9516  -4.9259  -4.9241  -4.9198
    -4.1245  -3.9096  -3.8740  -3.7888  -3.6295  -3.6004  -3.5217  -3.3364
    -0.4708  -0.4429  -0.3996  -0.2813  -0.2089  -0.1809  -0.1619  -0.1003
    -0.0551  -0.0005   0.0834   0.2416   0.2551   0.3194   0.3561   0.4067
     0.4800   0.5049   0.5146   0.5660   0.5776   0.5923   0.6234   0.6800
     0.8224   0.8522   0.9000   0.9355   0.9609   0.9759   1.0059   1.0484
     1.0665   1.1086   1.1262   1.1642   1.2080   1.2427   1.2806   1.3465
     1.3779   1.4192   1.4517   1.5134   1.5531   1.5638   1.5929   1.6220
     1.6459   1.6705   1.6875   1.7168   1.7313   1.7721   1.8043   1.8235
     1.8340   1.8541   1.8753   1.8985   1.9162   1.9267   1.9534   1.9653
     1.9967   2.0366   2.0825   2.1097   2.1358   2.1779   2.2267   2.3663

          k =-0.1250-0.1250 0.1250 (132670 PWs)   bands (ev):

   -18.6877 -18.5377 -18.4850 -18.3714 -18.3656 -18.3611 -18.3541 -18.3528
   -18.3437 -18.3428 -18.3426 -18.3420 -18.3310 -18.3270 -18.2800 -18.2747
   -18.2720 -18.2637 -18.2607 -18.2452 -18.2431 -18.2230 -18.2059 -18.2000
   -18.1968 -18.1951 -18.1895 -18.1882 -18.1838 -18.1837 -18.1786 -18.1704
   -18.1594 -18.1574 -18.1557 -18.1519 -18.1494 -18.1451 -18.1447 -18.1386
   -18.1368 -18.1321 -18.1309 -18.0322 -18.0188 -18.0155 -18.0087 -17.9995
    -9.5869  -9.4530  -9.3342  -9.2457  -9.1502  -9.1173  -9.0919  -9.0599
    -9.0297  -9.0171  -8.9672  -8.9358  -8.9120  -8.8556  -8.8264  -8.7664
    -8.7635  -8.7226  -8.7116  -8.6830  -8.6648  -8.6082  -8.5509  -8.4853
    -5.4407  -5.4359  -5.4303  -5.3167  -5.3038  -5.2941  -5.2517  -5.2420
    -5.2252  -5.1484  -5.1336  -5.1323  -5.1200  -5.0763  -5.0754  -5.0692
    -5.0631  -5.0494  -5.0484  -4.9760  -4.9517  -4.9254  -4.9240  -4.9200
    -4.4722  -3.9678  -3.9226  -3.8993  -3.3996  -3.3604  -3.3171  -2.7316
    -0.7974  -0.7722  -0.7116  -0.6477  -0.6199  -0.5438  -0.5226  -0.4844
    -0.4349  -0.3972  -0.2363  -0.1713   0.4023   0.4440   0.4835   0.5971
     0.6324   0.6763   0.7219   0.7541   0.8021   0.8705   0.8923   0.9259
     0.9887   1.0003   1.0342   1.0518   1.0898   1.1038   1.1451   1.2139
     1.2268   1.2469   1.2617   1.2887   1.3060   1.3159   1.3581   1.3861
     1.4005   1.4222   1.4461   1.4695   1.4752   1.5055   1.5261   1.5559
     1.5781   1.5962   1.6378   1.6647   1.6753   1.7057   1.7212   1.7489
     1.7771   1.8278   1.8478   1.9413   1.9957   2.0278   2.0855   2.1302
     2.1591   2.2007   2.2462   2.3173   2.6470   2.7474   2.8171   3.1807

          k =-0.1250 0.1250-0.1250 (132670 PWs)   bands (ev):

   -18.6877 -18.5377 -18.4850 -18.3714 -18.3656 -18.3611 -18.3541 -18.3528
   -18.3437 -18.3428 -18.3426 -18.3420 -18.3310 -18.3270 -18.2800 -18.2747
   -18.2720 -18.2637 -18.2607 -18.2452 -18.2431 -18.2230 -18.2059 -18.2000
   -18.1968 -18.1951 -18.1895 -18.1882 -18.1838 -18.1837 -18.1786 -18.1704
   -18.1594 -18.1574 -18.1557 -18.1519 -18.1494 -18.1451 -18.1447 -18.1386
   -18.1368 -18.1321 -18.1309 -18.0322 -18.0188 -18.0155 -18.0087 -17.9995
    -9.5863  -9.4558  -9.3306  -9.2449  -9.1508  -9.1196  -9.0917  -9.0604
    -9.0301  -9.0214  -8.9603  -8.9332  -8.9153  -8.8541  -8.8280  -8.7670
    -8.7642  -8.7213  -8.7122  -8.6820  -8.6658  -8.6073  -8.5515  -8.4852
    -5.4407  -5.4359  -5.4303  -5.3168  -5.3038  -5.2939  -5.2519  -5.2420
    -5.2251  -5.1486  -5.1336  -5.1321  -5.1200  -5.0764  -5.0748  -5.0698
    -5.0630  -5.0494  -5.0484  -4.9760  -4.9517  -4.9254  -4.9241  -4.9200
    -4.4721  -3.9699  -3.9278  -3.8917  -3.3922  -3.3720  -3.3135  -2.7315
    -0.8186  -0.7326  -0.6904  -0.6760  -0.6342  -0.5557  -0.5065  -0.4652
    -0.4515  -0.4075  -0.2375  -0.1667   0.4031   0.4410   0.4866   0.6117
     0.6188   0.6779   0.7219   0.7609   0.7953   0.8482   0.9246   0.9454
     0.9822   0.9969   1.0336   1.0698   1.0897   1.1316   1.1498   1.1667
     1.1982   1.2259   1.2501   1.2825   1.3121   1.3199   1.3501   1.3827
     1.3895   1.4340   1.4525   1.4874   1.5039   1.5222   1.5348   1.5508
     1.5632   1.6058   1.6241   1.6509   1.6652   1.7030   1.7316   1.7483
     1.8015   1.8215   1.8474   1.9303   1.9982   2.0239   2.0758   2.1349
     2.1556   2.2229   2.2395   2.3110   2.6360   2.7638   2.8149   3.1822

          k = 0.1250-0.1250-0.1250 (132670 PWs)   bands (ev):

   -18.6877 -18.5377 -18.4850 -18.3714 -18.3656 -18.3611 -18.3541 -18.3528
   -18.3437 -18.3428 -18.3426 -18.3420 -18.3310 -18.3270 -18.2800 -18.2747
   -18.2720 -18.2637 -18.2607 -18.2452 -18.2431 -18.2230 -18.2059 -18.2000
   -18.1968 -18.1951 -18.1895 -18.1882 -18.1838 -18.1837 -18.1786 -18.1704
   -18.1594 -18.1574 -18.1557 -18.1519 -18.1494 -18.1451 -18.1447 -18.1386
   -18.1368 -18.1321 -18.1309 -18.0322 -18.0188 -18.0155 -18.0087 -17.9995
    -9.5862  -9.4561  -9.3293  -9.2481  -9.1508  -9.1145  -9.0925  -9.0543
    -9.0393  -9.0164  -8.9695  -8.9334  -8.9125  -8.8515  -8.8272  -8.7669
    -8.7624  -8.7274  -8.7084  -8.6835  -8.6653  -8.6069  -8.5515  -8.4852
    -5.4408  -5.4359  -5.4303  -5.3168  -5.3038  -5.2941  -5.2517  -5.2420
    -5.2251  -5.1485  -5.1336  -5.1324  -5.1200  -5.0762  -5.0753  -5.0693
    -5.0631  -5.0494  -5.0484  -4.9761  -4.9516  -4.9255  -4.9241  -4.9199
    -4.4715  -3.9798  -3.9101  -3.8990  -3.4063  -3.3659  -3.3042  -2.7347
    -0.8201  -0.7441  -0.6802  -0.6673  -0.6210  -0.5491  -0.5040  -0.4821
    -0.4406  -0.4183  -0.2445  -0.1780   0.4062   0.4374   0.4901   0.6084
     0.6218   0.6762   0.7174   0.7671   0.8001   0.8666   0.8978   0.9364
     0.9827   1.0052   1.0343   1.0772   1.0924   1.1017   1.1409   1.1561
     1.2020   1.2357   1.2781   1.2947   1.3167   1.3408   1.3542   1.3712
     1.4043   1.4272   1.4535   1.4721   1.4957   1.5092   1.5394   1.5446
     1.5736   1.6072   1.6306   1.6605   1.6745   1.6988   1.7276   1.7475
     1.7993   1.8150   1.8441   1.9297   1.9983   2.0252   2.0739   2.1163
     2.1695   2.2107   2.2435   2.3171   2.6446   2.7531   2.8134   3.1639

          k =-0.1250-0.1250 0.3750 (132608 PWs)   bands (ev):

   -18.6877 -18.5377 -18.4850 -18.3714 -18.3656 -18.3611 -18.3541 -18.3528
   -18.3437 -18.3428 -18.3426 -18.3420 -18.3310 -18.3270 -18.2800 -18.2747
   -18.2720 -18.2637 -18.2607 -18.2452 -18.2431 -18.2230 -18.2059 -18.2000
   -18.1968 -18.1951 -18.1895 -18.1882 -18.1838 -18.1837 -18.1786 -18.1704
   -18.1594 -18.1574 -18.1557 -18.1519 -18.1494 -18.1451 -18.1447 -18.1386
   -18.1368 -18.1321 -18.1309 -18.0322 -18.0188 -18.0155 -18.0087 -17.9995
    -9.5852  -9.4417  -9.3337  -9.2684  -9.1511  -9.1187  -9.0787  -9.0706
    -9.0458  -9.0174  -8.9603  -8.9390  -8.9167  -8.8339  -8.8149  -8.7648
    -8.7621  -8.7192  -8.6948  -8.6868  -8.6714  -8.6237  -8.5546  -8.4858
    -5.4407  -5.4358  -5.4302  -5.3168  -5.3037  -5.2936  -5.2519  -5.2421
    -5.2253  -5.1481  -5.1333  -5.1311  -5.1208  -5.0766  -5.0750  -5.0693
    -5.0634  -5.0495  -5.0484  -4.9756  -4.9516  -4.9254  -4.9241  -4.9201
    -4.3582  -4.0928  -3.8213  -3.8066  -3.5541  -3.5148  -3.2282  -2.9418
    -0.7819  -0.7409  -0.6477  -0.6025  -0.5510  -0.5120  -0.4236  -0.2731
    -0.2115  -0.0809  -0.0459   0.1151   0.3762   0.4226   0.4582   0.5021
     0.5540   0.5914   0.6207   0.6468   0.6683   0.7235   0.7719   0.8097
     0.8354   0.8737   0.9284   0.9801   1.0717   1.0971   1.1260   1.1671
     1.2134   1.2332   1.2425   1.2831   1.3049   1.3415   1.3584   1.3877
     1.4100   1.4170   1.4575   1.4765   1.5054   1.5296   1.5418   1.5828
     1.5986   1.6186   1.6411   1.6709   1.7061   1.7380   1.7631   1.7868
     1.8080   1.8352   1.8514   1.9017   1.9310   1.9469   1.9816   2.0303
     2.0705   2.2151   2.2487   2.2830   2.4373   2.5606   2.7318   2.9535

          k =-0.1250 0.1250-0.3750 (132608 PWs)   bands (ev):

   -18.6877 -18.5377 -18.4850 -18.3714 -18.3656 -18.3611 -18.3541 -18.3528
   -18.3437 -18.3428 -18.3426 -18.3420 -18.3310 -18.3270 -18.2800 -18.2747
   -18.2720 -18.2637 -18.2607 -18.2452 -18.2431 -18.2230 -18.2059 -18.2000
   -18.1968 -18.1951 -18.1895 -18.1882 -18.1838 -18.1837 -18.1786 -18.1704
   -18.1594 -18.1574 -18.1557 -18.1519 -18.1494 -18.1451 -18.1447 -18.1386
   -18.1368 -18.1321 -18.1309 -18.0322 -18.0188 -18.0155 -18.0087 -17.9995
    -9.5846  -9.4446  -9.3311  -9.2660  -9.1514  -9.1201  -9.0796  -9.0678
    -9.0510  -9.0223  -8.9530  -8.9371  -8.9166  -8.8291  -8.8210  -8.7672
    -8.7613  -8.7172  -8.6983  -8.6841  -8.6721  -8.6227  -8.5551  -8.4858
    -5.4407  -5.4358  -5.4302  -5.3168  -5.3037  -5.2935  -5.2521  -5.2421
    -5.2253  -5.1483  -5.1333  -5.1310  -5.1208  -5.0768  -5.0745  -5.0697
    -5.0633  -5.0496  -5.0484  -4.9756  -4.9516  -4.9253  -4.9241  -4.9201
    -4.3583  -4.0899  -3.8496  -3.7817  -3.5555  -3.5081  -3.2350  -2.9396
    -0.7930  -0.7058  -0.6601  -0.6053  -0.5610  -0.5076  -0.4322  -0.2930
    -0.1904  -0.0863  -0.0251   0.0997   0.3767   0.4322   0.4525   0.5003
     0.5377   0.6063   0.6211   0.6510   0.6690   0.7345   0.7632   0.7965
     0.8367   0.9088   0.9332   0.9762   1.0829   1.0943   1.1261   1.1402
     1.1829   1.2257   1.2456   1.3014   1.3039   1.3168   1.3456   1.3820
     1.4181   1.4372   1.4661   1.4815   1.5047   1.5132   1.5709   1.5808
     1.5974   1.6330   1.6507   1.6667   1.6911   1.7367   1.7654   1.7888
     1.8228   1.8281   1.8465   1.9007   1.9073   1.9467   1.9961   2.0236
     2.0779   2.2231   2.2447   2.2782   2.4366   2.5530   2.7362   2.9582

          k = 0.1250-0.1250-0.3750 (132608 PWs)   bands (ev):

   -18.6877 -18.5377 -18.4850 -18.3714 -18.3656 -18.3611 -18.3541 -18.3528
   -18.3437 -18.3428 -18.3426 -18.3420 -18.3310 -18.3270 -18.2800 -18.2747
   -18.2720 -18.2637 -18.2607 -18.2452 -18.2431 -18.2230 -18.2059 -18.2000
   -18.1968 -18.1951 -18.1895 -18.1882 -18.1838 -18.1837 -18.1786 -18.1704
   -18.1594 -18.1574 -18.1557 -18.1519 -18.1494 -18.1451 -18.1447 -18.1386
   -18.1368 -18.1321 -18.1309 -18.0322 -18.0188 -18.0155 -18.0087 -17.9995
    -9.5846  -9.4449  -9.3293  -9.2690  -9.1521  -9.1165  -9.0806  -9.0635
    -9.0475  -9.0285  -8.9623  -8.9302  -8.9185  -8.8298  -8.8163  -8.7663
    -8.7613  -8.7216  -8.6943  -8.6875  -8.6714  -8.6221  -8.5551  -8.4858
    -5.4407  -5.4358  -5.4302  -5.3168  -5.3037  -5.2936  -5.2519  -5.2421
    -5.2253  -5.1482  -5.1333  -5.1311  -5.1208  -5.0767  -5.0749  -5.0693
    -5.0634  -5.0496  -5.0483  -4.9757  -4.9516  -4.9254  -4.9241  -4.9201
    -4.3570  -4.0936  -3.8433  -3.7832  -3.5565  -3.5136  -3.2256  -2.9456
    -0.7947  -0.7040  -0.6578  -0.6153  -0.5511  -0.5002  -0.4272  -0.2734
    -0.1927  -0.1042  -0.0574   0.0931   0.3913   0.4244   0.4633   0.5087
     0.5466   0.6016   0.6226   0.6367   0.6871   0.7208   0.7600   0.8031
     0.8384   0.8919   0.9350   0.9900   1.0705   1.1021   1.1167   1.1443
     1.1661   1.2235   1.2544   1.2885   1.3047   1.3312   1.3652   1.4132
     1.4254   1.4543   1.4656   1.4760   1.4959   1.5104   1.5548   1.5808
     1.5947   1.6245   1.6497   1.6652   1.7003   1.7334   1.7657   1.7850
     1.7961   1.8311   1.8620   1.8906   1.9336   1.9521   1.9880   2.0204
     2.0667   2.2080   2.2401   2.2936   2.4476   2.5434   2.7372   2.9466

          k = 0.3750-0.1250 0.1250 (132608 PWs)   bands (ev):

   -18.6877 -18.5377 -18.4850 -18.3714 -18.3656 -18.3611 -18.3541 -18.3528
   -18.3437 -18.3428 -18.3426 -18.3420 -18.3310 -18.3270 -18.2800 -18.2747
   -18.2720 -18.2637 -18.2607 -18.2452 -18.2431 -18.2230 -18.2059 -18.2000
   -18.1968 -18.1951 -18.1895 -18.1882 -18.1838 -18.1837 -18.1786 -18.1704
   -18.1594 -18.1574 -18.1557 -18.1519 -18.1494 -18.1451 -18.1447 -18.1386
   -18.1368 -18.1321 -18.1309 -18.0322 -18.0188 -18.0155 -18.0087 -17.9995
    -9.5804  -9.4518  -9.3472  -9.2363  -9.1604  -9.1320  -9.0863  -9.0561
    -9.0264  -9.0150  -8.9718  -8.9366  -8.9088  -8.8497  -8.8286  -8.7682
    -8.7648  -8.7232  -8.7124  -8.6712  -8.6586  -8.6048  -8.5469  -8.5017
    -5.4407  -5.4359  -5.4301  -5.3168  -5.3037  -5.2936  -5.2521  -5.2421
    -5.2250  -5.1483  -5.1337  -5.1319  -5.1196  -5.0770  -5.0740  -5.0709
    -5.0628  -5.0495  -5.0485  -4.9753  -4.9518  -4.9255  -4.9242  -4.9201
    -4.3465  -4.1279  -3.7970  -3.7717  -3.5728  -3.5543  -3.1921  -2.9556
    -0.7642  -0.7134  -0.6687  -0.5820  -0.5346  -0.4768  -0.3957  -0.3567
    -0.2176  -0.1840  -0.0132   0.1232   0.3331   0.4391   0.4643   0.5037
     0.5191   0.5824   0.5968   0.6363   0.6910   0.7125   0.7771   0.8181
     0.9044   0.9273   0.9783   1.0171   1.0385   1.0688   1.1295   1.1516
     1.1910   1.1959   1.2416   1.2765   1.3030   1.3290   1.3626   1.3920
     1.4233   1.4489   1.4823   1.4970   1.5119   1.5236   1.5616   1.5807
     1.6008   1.6132   1.6327   1.6719   1.6870   1.7201   1.7473   1.7695
     1.7986   1.8295   1.8493   1.8736   1.9301   1.9581   2.0296   2.0623
     2.1315   2.1573   2.2349   2.2981   2.4071   2.4934   2.7908   2.9297

          k =-0.3750-0.1250-0.1250 (132608 PWs)   bands (ev):

   -18.6877 -18.5377 -18.4850 -18.3714 -18.3656 -18.3611 -18.3541 -18.3528
   -18.3437 -18.3428 -18.3426 -18.3420 -18.3310 -18.3270 -18.2800 -18.2747
   -18.2720 -18.2637 -18.2607 -18.2452 -18.2431 -18.2230 -18.2059 -18.2000
   -18.1968 -18.1951 -18.1895 -18.1882 -18.1838 -18.1837 -18.1786 -18.1704
   -18.1594 -18.1574 -18.1557 -18.1519 -18.1494 -18.1451 -18.1447 -18.1386
   -18.1368 -18.1321 -18.1309 -18.0322 -18.0188 -18.0155 -18.0087 -17.9995
    -9.5812  -9.4480  -9.3524  -9.2356  -9.1631  -9.1199  -9.0880  -9.0583
    -9.0399  -9.0077  -8.9746  -8.9306  -8.9058  -8.8592  -8.8216  -8.7679
    -8.7645  -8.7250  -8.7137  -8.6715  -8.6572  -8.6057  -8.5458  -8.5020
    -5.4407  -5.4359  -5.4301  -5.3168  -5.3037  -5.2936  -5.2521  -5.2421
    -5.2250  -5.1483  -5.1337  -5.1320  -5.1196  -5.0772  -5.0739  -5.0709
    -5.0627  -5.0494  -5.0485  -4.9753  -4.9518  -4.9255  -4.9242  -4.9201
    -4.3476  -4.1236  -3.8090  -3.7687  -3.5719  -3.5445  -3.1981  -2.9549
    -0.7629  -0.7239  -0.6454  -0.5608  -0.5499  -0.4847  -0.4154  -0.3571
    -0.2193  -0.1672  -0.0232   0.1271   0.3276   0.4446   0.4746   0.4926
     0.5134   0.5679   0.5982   0.6346   0.6905   0.7288   0.7819   0.8098
     0.8823   0.9430   0.9829   1.0280   1.0528   1.0889   1.0965   1.1554
     1.1672   1.1981   1.2573   1.2789   1.3261   1.3375   1.3576   1.3939
     1.4181   1.4437   1.4827   1.4954   1.5200   1.5293   1.5516   1.5755
     1.5795   1.6248   1.6358   1.6570   1.6768   1.7177   1.7506   1.7662
     1.8040   1.8487   1.8520   1.8761   1.9186   1.9543   2.0149   2.0844
     2.1207   2.1676   2.2293   2.2933   2.4044   2.5091   2.7870   2.9190

          k = 0.3750 0.1250-0.1250 (132608 PWs)   bands (ev):

   -18.6877 -18.5377 -18.4850 -18.3714 -18.3656 -18.3611 -18.3541 -18.3528
   -18.3437 -18.3428 -18.3426 -18.3420 -18.3310 -18.3270 -18.2800 -18.2747
   -18.2720 -18.2637 -18.2607 -18.2452 -18.2431 -18.2230 -18.2059 -18.2000
   -18.1968 -18.1951 -18.1895 -18.1882 -18.1838 -18.1837 -18.1786 -18.1704
   -18.1594 -18.1574 -18.1557 -18.1519 -18.1494 -18.1451 -18.1447 -18.1386
   -18.1368 -18.1321 -18.1309 -18.0322 -18.0188 -18.0155 -18.0087 -17.9995
    -9.5811  -9.4483  -9.3515  -9.2367  -9.1613  -9.1287  -9.0865  -9.0557
    -9.0270  -9.0071  -8.9808  -8.9398  -8.9020  -8.8578  -8.8236  -8.7672
    -8.7646  -8.7241  -8.7117  -8.6722  -8.6577  -8.6059  -8.5460  -8.5019
    -5.4407  -5.4359  -5.4301  -5.3168  -5.3037  -5.2938  -5.2520  -5.2420
    -5.2251  -5.1481  -5.1337  -5.1320  -5.1196  -5.0771  -5.0746  -5.0702
    -5.0629  -5.0494  -5.0485  -4.9754  -4.9518  -4.9255  -4.9241  -4.9201
    -4.3470  -4.1264  -3.7935  -3.7778  -3.5761  -3.5493  -3.1919  -2.9559
    -0.7553  -0.7239  -0.6710  -0.5830  -0.5337  -0.4711  -0.4125  -0.3552
    -0.2142  -0.1544  -0.0157   0.1143   0.3232   0.4448   0.4652   0.4943
     0.5228   0.5673   0.6026   0.6398   0.6859   0.7057   0.8000   0.8128
     0.8915   0.9278   0.9793   0.9921   1.0501   1.0674   1.1310   1.1632
     1.1956   1.2217   1.2425   1.2840   1.3072   1.3344   1.3719   1.4049
     1.4129   1.4346   1.4689   1.4907   1.4984   1.5250   1.5496   1.5818
     1.5935   1.6241   1.6407   1.6650   1.6779   1.7056   1.7589   1.7728
     1.7911   1.8545   1.8606   1.8786   1.9103   1.9676   2.0313   2.0574
     2.1101   2.1776   2.2315   2.2976   2.4213   2.4811   2.7893   2.9271

          k =-0.3750 0.1250 0.1250 (132608 PWs)   bands (ev):

   -18.6877 -18.5377 -18.4850 -18.3714 -18.3656 -18.3611 -18.3541 -18.3528
   -18.3437 -18.3428 -18.3426 -18.3420 -18.3310 -18.3270 -18.2800 -18.2747
   -18.2720 -18.2637 -18.2607 -18.2452 -18.2431 -18.2230 -18.2059 -18.2000
   -18.1968 -18.1951 -18.1895 -18.1882 -18.1838 -18.1837 -18.1786 -18.1704
   -18.1594 -18.1574 -18.1557 -18.1519 -18.1494 -18.1451 -18.1447 -18.1386
   -18.1368 -18.1321 -18.1309 -18.0322 -18.0188 -18.0155 -18.0087 -17.9995
    -9.5804  -9.4519  -9.3470  -9.2386  -9.1606  -9.1247  -9.0868  -9.0565
    -9.0383  -9.0002  -8.9801  -8.9389  -8.9083  -8.8472  -8.8267  -8.7682
    -8.7637  -8.7272  -8.7109  -8.6717  -8.6582  -8.6045  -8.5470  -8.5017
    -5.4407  -5.4359  -5.4301  -5.3168  -5.3037  -5.2938  -5.2519  -5.2420
    -5.2251  -5.1482  -5.1338  -5.1321  -5.1197  -5.0769  -5.0746  -5.0704
    -5.0628  -5.0494  -5.0484  -4.9754  -4.9518  -4.9256  -4.9241  -4.9200
    -4.3453  -4.1299  -3.7966  -3.7708  -3.5792  -3.5480  -3.1886  -2.9601
    -0.7690  -0.7236  -0.6258  -0.5752  -0.5411  -0.4871  -0.4205  -0.3590
    -0.2109  -0.1751  -0.0112   0.1080   0.3270   0.4410   0.4642   0.5105
     0.5313   0.5678   0.5946   0.6334   0.6828   0.7023   0.7874   0.8278
     0.9030   0.9392   0.9755   1.0231   1.0550   1.0676   1.0959   1.1439
     1.1791   1.2031   1.2560   1.2963   1.3189   1.3321   1.3787   1.3992
     1.4061   1.4401   1.4727   1.4962   1.5117   1.5333   1.5444   1.5778
     1.6113   1.6171   1.6397   1.6696   1.6943   1.7094   1.7474   1.7682
     1.8007   1.8305   1.8466   1.8743   1.9237   1.9555   2.0291   2.0571
     2.1099   2.1657   2.2400   2.2945   2.4228   2.5042   2.7757   2.9139

          k =-0.1250 0.3750 0.1250 (132608 PWs)   bands (ev):

   -18.6877 -18.5377 -18.4850 -18.3714 -18.3656 -18.3611 -18.3541 -18.3528
   -18.3437 -18.3428 -18.3426 -18.3420 -18.3310 -18.3270 -18.2800 -18.2747
   -18.2720 -18.2637 -18.2607 -18.2452 -18.2431 -18.2230 -18.2059 -18.2000
   -18.1968 -18.1951 -18.1895 -18.1882 -18.1838 -18.1837 -18.1786 -18.1704
   -18.1594 -18.1573 -18.1557 -18.1519 -18.1494 -18.1451 -18.1447 -18.1386
   -18.1368 -18.1321 -18.1309 -18.0322 -18.0188 -18.0155 -18.0087 -17.9995
    -9.5802  -9.4611  -9.3238  -9.2439  -9.1701  -9.1078  -9.1033  -9.0576
    -9.0400  -9.0135  -8.9700  -8.9413  -8.9109  -8.8423  -8.8278  -8.7613
    -8.7427  -8.7217  -8.7081  -8.6866  -8.6746  -8.6088  -8.5435  -8.4983
    -5.4406  -5.4359  -5.4303  -5.3167  -5.3038  -5.2940  -5.2517  -5.2418
    -5.2252  -5.1485  -5.1336  -5.1325  -5.1197  -5.0759  -5.0754  -5.0690
    -5.0634  -5.0493  -5.0482  -4.9755  -4.9516  -4.9261  -4.9241  -4.9196
    -4.3484  -4.0995  -3.8321  -3.7782  -3.5755  -3.5137  -3.2238  -2.9610
    -0.7773  -0.6998  -0.6819  -0.6171  -0.5502  -0.4842  -0.4270  -0.3477
    -0.1474  -0.1236   0.0100   0.1040   0.3636   0.4307   0.4799   0.5178
     0.5686   0.6132   0.6333   0.6500   0.6861   0.7346   0.7510   0.8208
     0.8543   0.9028   0.9587   1.0216   1.0452   1.0603   1.0999   1.1291
     1.1911   1.2148   1.2483   1.2742   1.3027   1.3289   1.3605   1.3903
     1.4131   1.4347   1.4533   1.4904   1.5025   1.5170   1.5566   1.5794
     1.5938   1.6342   1.6634   1.6858   1.7089   1.7158   1.7507   1.7701
     1.8051   1.8214   1.8471   1.8898   1.9331   1.9547   2.0097   2.0310
     2.1259   2.1392   2.2227   2.2853   2.3894   2.4638   2.7572   2.8939

          k =-0.1250-0.3750-0.1250 (132608 PWs)   bands (ev):

   -18.6877 -18.5377 -18.4850 -18.3714 -18.3656 -18.3611 -18.3541 -18.3528
   -18.3437 -18.3428 -18.3426 -18.3420 -18.3310 -18.3270 -18.2800 -18.2747
   -18.2720 -18.2637 -18.2607 -18.2452 -18.2431 -18.2230 -18.2059 -18.2000
   -18.1968 -18.1951 -18.1895 -18.1882 -18.1838 -18.1837 -18.1786 -18.1704
   -18.1594 -18.1573 -18.1557 -18.1519 -18.1494 -18.1451 -18.1447 -18.1386
   -18.1368 -18.1321 -18.1309 -18.0322 -18.0188 -18.0155 -18.0087 -17.9995
    -9.5810  -9.4583  -9.3281  -9.2427  -9.1671  -9.1121  -9.0983  -9.0584
    -9.0484  -9.0131  -8.9665  -8.9321  -8.9126  -8.8479  -8.8279  -8.7610
    -8.7420  -8.7205  -8.7111  -8.6862  -8.6729  -8.6098  -8.5426  -8.4985
    -5.4407  -5.4359  -5.4303  -5.3167  -5.3038  -5.2939  -5.2518  -5.2418
    -5.2251  -5.1487  -5.1336  -5.1323  -5.1196  -5.0767  -5.0743  -5.0695
    -5.0633  -5.0494  -5.0483  -4.9754  -4.9516  -4.9260  -4.9241  -4.9197
    -4.3501  -4.0951  -3.8322  -3.7853  -3.5600  -3.5231  -3.2285  -2.9579
    -0.7676  -0.7233  -0.6720  -0.5995  -0.5679  -0.4833  -0.4324  -0.3490
    -0.1474  -0.1108   0.0184   0.1020   0.3544   0.4423   0.4622   0.5199
     0.5692   0.5971   0.6370   0.6626   0.6854   0.7261   0.7641   0.8196
     0.8452   0.9067   0.9725   1.0024   1.0368   1.0755   1.1156   1.1590
     1.1891   1.2126   1.2436   1.2735   1.2946   1.3345   1.3495   1.3961
     1.4167   1.4328   1.4449   1.4615   1.4899   1.5223   1.5409   1.5790
     1.6109   1.6258   1.6563   1.6772   1.7020   1.7255   1.7515   1.7714
     1.8157   1.8362   1.8591   1.8900   1.9250   1.9698   2.0043   2.0388
     2.1047   2.1533   2.2141   2.2911   2.3706   2.4731   2.7679   2.9013

          k = 0.1250 0.3750-0.1250 (132608 PWs)   bands (ev):

   -18.6877 -18.5377 -18.4850 -18.3714 -18.3656 -18.3611 -18.3541 -18.3528
   -18.3437 -18.3428 -18.3426 -18.3420 -18.3310 -18.3270 -18.2800 -18.2747
   -18.2720 -18.2637 -18.2607 -18.2452 -18.2431 -18.2230 -18.2059 -18.2000
   -18.1968 -18.1951 -18.1895 -18.1882 -18.1838 -18.1837 -18.1786 -18.1704
   -18.1594 -18.1573 -18.1557 -18.1519 -18.1494 -18.1451 -18.1447 -18.1386
   -18.1368 -18.1321 -18.1309 -18.0322 -18.0188 -18.0155 -18.0087 -17.9995
    -9.5810  -9.4580  -9.3292  -9.2406  -9.1697  -9.1122  -9.1017  -9.0613
    -9.0335  -9.0136  -8.9602  -8.9521  -8.9083  -8.8464  -8.8270  -8.7629
    -8.7416  -8.7160  -8.7118  -8.6875  -8.6733  -8.6101  -8.5429  -8.4984
    -5.4406  -5.4359  -5.4303  -5.3167  -5.3038  -5.2940  -5.2517  -5.2418
    -5.2252  -5.1485  -5.1336  -5.1324  -5.1197  -5.0760  -5.0754  -5.0690
    -5.0634  -5.0493  -5.0482  -4.9755  -4.9517  -4.9260  -4.9241  -4.9196
    -4.3504  -4.0934  -3.8432  -3.7750  -3.5713  -3.5102  -3.2334  -2.9548
    -0.7642  -0.7258  -0.6752  -0.6191  -0.5607  -0.4615  -0.4425  -0.3580
    -0.1584  -0.0934   0.0406   0.1090   0.3409   0.4439   0.4535   0.5302
     0.5582   0.6148   0.6327   0.6600   0.6708   0.7342   0.7649   0.8131
     0.8604   0.8808   0.9534   1.0105   1.0505   1.0584   1.1139   1.1430
     1.1899   1.2150   1.2569   1.2855   1.3077   1.3410   1.3541   1.3734
     1.3977   1.4263   1.4611   1.4727   1.4979   1.5238   1.5542   1.5950
     1.6078   1.6331   1.6580   1.6784   1.6952   1.7122   1.7330   1.7634
     1.8027   1.8416   1.8570   1.8881   1.9406   1.9717   2.0101   2.0370
     2.1128   2.1505   2.2169   2.2797   2.4032   2.4511   2.7504   2.9101

          k = 0.1250-0.3750 0.1250 (132608 PWs)   bands (ev):

   -18.6877 -18.5377 -18.4850 -18.3714 -18.3656 -18.3611 -18.3541 -18.3528
   -18.3437 -18.3428 -18.3426 -18.3420 -18.3310 -18.3270 -18.2800 -18.2747
   -18.2720 -18.2637 -18.2607 -18.2452 -18.2431 -18.2230 -18.2059 -18.2000
   -18.1968 -18.1951 -18.1895 -18.1882 -18.1838 -18.1837 -18.1786 -18.1704
   -18.1594 -18.1573 -18.1557 -18.1519 -18.1494 -18.1451 -18.1447 -18.1386
   -18.1368 -18.1321 -18.1309 -18.0322 -18.0188 -18.0155 -18.0087 -17.9995
    -9.5803  -9.4611  -9.3242  -9.2414  -9.1711  -9.1137  -9.0997  -9.0620
    -9.0402  -9.0123  -8.9558  -8.9468  -8.9125  -8.8423  -8.8311  -8.7639
    -8.7430  -8.7145  -8.7112  -8.6858  -8.6755  -8.6090  -8.5437  -8.4982
    -5.4406  -5.4359  -5.4303  -5.3167  -5.3038  -5.2939  -5.2518  -5.2418
    -5.2251  -5.1487  -5.1336  -5.1322  -5.1197  -5.0764  -5.0744  -5.0696
    -5.0633  -5.0494  -5.0482  -4.9754  -4.9516  -4.9260  -4.9241  -4.9197
    -4.3494  -4.0984  -3.8319  -3.7793  -3.5621  -3.5267  -3.2276  -2.9563
    -0.7802  -0.6965  -0.6731  -0.6160  -0.5803  -0.4740  -0.4288  -0.3517
    -0.1598  -0.1078   0.0345   0.1137   0.3493   0.4433   0.4585   0.5247
     0.5640   0.6187   0.6326   0.6550   0.6810   0.7267   0.7517   0.8205
     0.8496   0.9082   0.9769   1.0037   1.0431   1.0690   1.1015   1.1638
     1.1896   1.1974   1.2281   1.2757   1.2916   1.3279   1.3542   1.3847
     1.3973   1.4450   1.4630   1.4905   1.4987   1.5209   1.5552   1.5914
     1.6037   1.6167   1.6371   1.6758   1.7122   1.7274   1.7565   1.7719
     1.8026   1.8297   1.8407   1.8991   1.9479   1.9723   2.0029   2.0402
     2.1009   2.1365   2.2214   2.2910   2.3869   2.4666   2.7540   2.9125

          k =-0.1250-0.3750 0.3750 (132616 PWs)   bands (ev):

   -18.6877 -18.5377 -18.4850 -18.3714 -18.3656 -18.3611 -18.3541 -18.3528
   -18.3437 -18.3428 -18.3426 -18.3420 -18.3310 -18.3270 -18.2800 -18.2747
   -18.2720 -18.2637 -18.2607 -18.2452 -18.2431 -18.2230 -18.2059 -18.2000
   -18.1968 -18.1951 -18.1895 -18.1882 -18.1838 -18.1837 -18.1786 -18.1704
   -18.1594 -18.1573 -18.1557 -18.1519 -18.1494 -18.1451 -18.1447 -18.1386
   -18.1368 -18.1321 -18.1309 -18.0322 -18.0188 -18.0155 -18.0087 -17.9995
    -9.5799  -9.4468  -9.3299  -9.2611  -9.1611  -9.1211  -9.0914  -9.0751
    -9.0468  -9.0134  -8.9768  -8.9344  -8.9002  -8.8387  -8.8065  -8.7628
    -8.7412  -8.7217  -8.6994  -8.6888  -8.6741  -8.6241  -8.5442  -8.4998
    -5.4407  -5.4358  -5.4302  -5.3167  -5.3037  -5.2936  -5.2519  -5.2419
    -5.2254  -5.1482  -5.1333  -5.1311  -5.1206  -5.0766  -5.0744  -5.0692
    -5.0637  -5.0494  -5.0481  -4.9752  -4.9516  -4.9258  -4.9241  -4.9197
    -4.2401  -3.9828  -3.9650  -3.7336  -3.6621  -3.4286  -3.4052  -3.1472
    -0.7468  -0.6826  -0.5593  -0.4244  -0.3873  -0.3087  -0.2001  -0.1735
    -0.0857  -0.0115   0.1385   0.1834   0.2778   0.3985   0.4372   0.4794
     0.5115   0.5285   0.5628   0.6124   0.6199   0.6569   0.6866   0.7297
     0.7997   0.8447   0.9206   0.9424   0.9794   1.0219   1.0597   1.0942
     1.1162   1.1682   1.1830   1.2221   1.2599   1.2937   1.3322   1.3696
     1.3910   1.4159   1.4504   1.4795   1.5135   1.5435   1.5836   1.6058
     1.6278   1.6593   1.6827   1.6944   1.7244   1.7555   1.7754   1.8129
     1.8274   1.8546   1.8797   1.8906   1.9095   1.9423   1.9601   1.9940
     2.0200   2.0766   2.1353   2.1967   2.3010   2.3953   2.4732   2.6566

          k =-0.1250 0.3750-0.3750 (132616 PWs)   bands (ev):

   -18.6877 -18.5377 -18.4850 -18.3714 -18.3656 -18.3611 -18.3541 -18.3528
   -18.3437 -18.3428 -18.3426 -18.3420 -18.3310 -18.3270 -18.2800 -18.2747
   -18.2720 -18.2637 -18.2607 -18.2452 -18.2431 -18.2230 -18.2059 -18.2000
   -18.1968 -18.1951 -18.1895 -18.1882 -18.1838 -18.1837 -18.1786 -18.1704
   -18.1594 -18.1573 -18.1557 -18.1519 -18.1494 -18.1451 -18.1447 -18.1386
   -18.1368 -18.1321 -18.1309 -18.0322 -18.0188 -18.0155 -18.0087 -17.9995
    -9.5792  -9.4500  -9.3256  -9.2604  -9.1620  -9.1195  -9.0938  -9.0750
    -9.0529  -9.0159  -8.9703  -8.9297  -8.9019  -8.8373  -8.8087  -8.7649
    -8.7415  -8.7205  -8.6998  -8.6876  -8.6753  -8.6228  -8.5449  -8.4996
    -5.4407  -5.4358  -5.4302  -5.3167  -5.3037  -5.2935  -5.2521  -5.2420
    -5.2253  -5.1484  -5.1332  -5.1310  -5.1206  -5.0768  -5.0736  -5.0699
    -5.0636  -5.0495  -5.0481  -4.9751  -4.9515  -4.9258  -4.9241  -4.9197
    -4.2391  -3.9901  -3.9615  -3.7332  -3.6541  -3.4393  -3.4017  -3.1457
    -0.7490  -0.6734  -0.5591  -0.4351  -0.3804  -0.3185  -0.1937  -0.1745
    -0.0942  -0.0061   0.1422   0.1804   0.2768   0.3891   0.4400   0.4764
     0.5116   0.5353   0.5815   0.5979   0.6280   0.6362   0.7095   0.7311
     0.8179   0.8374   0.9081   0.9533   0.9944   1.0226   1.0523   1.0955
     1.1120   1.1520   1.1800   1.2332   1.2413   1.2756   1.3224   1.3563
     1.4173   1.4237   1.4468   1.4991   1.5115   1.5496   1.5650   1.5945
     1.6292   1.6641   1.6859   1.6960   1.7344   1.7555   1.7922   1.8068
     1.8269   1.8521   1.8663   1.8991   1.9139   1.9458   1.9648   1.9816
     2.0207   2.0625   2.1338   2.2205   2.2796   2.3930   2.4800   2.6627

          k = 0.1250-0.3750-0.3750 (132616 PWs)   bands (ev):

   -18.6877 -18.5377 -18.4850 -18.3714 -18.3656 -18.3611 -18.3541 -18.3528
   -18.3437 -18.3428 -18.3426 -18.3420 -18.3310 -18.3270 -18.2800 -18.2747
   -18.2720 -18.2637 -18.2607 -18.2452 -18.2431 -18.2230 -18.2059 -18.2000
   -18.1968 -18.1951 -18.1895 -18.1882 -18.1838 -18.1837 -18.1786 -18.1704
   -18.1594 -18.1573 -18.1557 -18.1519 -18.1494 -18.1451 -18.1447 -18.1386
   -18.1368 -18.1321 -18.1309 -18.0322 -18.0188 -18.0155 -18.0087 -17.9995
    -9.5792  -9.4500  -9.3253  -9.2621  -9.1625  -9.1178  -9.0931  -9.0706
    -9.0497  -9.0222  -8.9758  -8.9293  -8.9013  -8.8367  -8.8052  -8.7630
    -8.7414  -8.7250  -8.6987  -8.6893  -8.6742  -8.6225  -8.5447  -8.4997
    -5.4407  -5.4358  -5.4302  -5.3167  -5.3037  -5.2937  -5.2519  -5.2419
    -5.2254  -5.1483  -5.1333  -5.1311  -5.1207  -5.0767  -5.0743  -5.0692
    -5.0637  -5.0495  -5.0481  -4.9753  -4.9515  -4.9259  -4.9241  -4.9197
    -4.2368  -4.0059  -3.9478  -3.7113  -3.6839  -3.4440  -3.3800  -3.1551
    -0.7501  -0.6728  -0.5619  -0.4154  -0.3881  -0.3112  -0.1950  -0.1486
    -0.0981  -0.0032   0.0572   0.1606   0.3044   0.3814   0.4693   0.5001
     0.5188   0.5476   0.5782   0.6031   0.6206   0.6541   0.6698   0.7222
     0.8073   0.8555   0.9131   0.9511   0.9785   1.0198   1.0456   1.0946
     1.1131   1.1647   1.1850   1.2160   1.2546   1.2881   1.3290   1.3656
     1.4103   1.4418   1.4484   1.4873   1.5190   1.5487   1.5634   1.5938
     1.6343   1.6554   1.6717   1.7076   1.7481   1.7711   1.7839   1.8072
     1.8172   1.8327   1.8671   1.8996   1.9083   1.9302   1.9660   1.9843
     2.0255   2.0683   2.1486   2.2089   2.2512   2.4205   2.4876   2.6426

          k = 0.3750 0.1250-0.3750 (132616 PWs)   bands (ev):

   -18.6877 -18.5377 -18.4850 -18.3714 -18.3656 -18.3611 -18.3541 -18.3528
   -18.3437 -18.3428 -18.3426 -18.3420 -18.3310 -18.3270 -18.2800 -18.2747
   -18.2720 -18.2637 -18.2607 -18.2452 -18.2431 -18.2230 -18.2059 -18.2000
   -18.1968 -18.1951 -18.1895 -18.1882 -18.1838 -18.1837 -18.1786 -18.1704
   -18.1594 -18.1574 -18.1557 -18.1519 -18.1494 -18.1451 -18.1447 -18.1386
   -18.1368 -18.1321 -18.1309 -18.0322 -18.0188 -18.0155 -18.0087 -17.9995
    -9.5800  -9.4377  -9.3458  -9.2606  -9.1697  -9.1333  -9.0709  -9.0633
    -9.0320  -9.0091  -8.9897  -8.9303  -8.9069  -8.8382  -8.8149  -8.7666
    -8.7619  -8.7195  -8.6946  -8.6839  -8.6586  -8.6224  -8.5469  -8.5022
    -5.4407  -5.4358  -5.4301  -5.3169  -5.3038  -5.2938  -5.2517  -5.2421
    -5.2251  -5.1481  -5.1334  -5.1310  -5.1205  -5.0763  -5.0755  -5.0694
    -5.0634  -5.0496  -5.0485  -4.9750  -4.9518  -4.9254  -4.9242  -4.9203
    -4.2346  -4.0447  -3.9154  -3.7337  -3.6678  -3.4780  -3.3304  -3.1456
    -0.7117  -0.6797  -0.5199  -0.4782  -0.3809  -0.2921  -0.2531  -0.1601
    -0.0691  -0.0158   0.0785   0.1701   0.2671   0.3907   0.4254   0.4516
     0.4959   0.5229   0.5454   0.5978   0.6268   0.6558   0.7019   0.7357
     0.7964   0.8512   0.8957   0.9352   0.9693   1.0217   1.0600   1.1096
     1.1345   1.1512   1.1812   1.2379   1.2743   1.3021   1.3323   1.3746
     1.4085   1.4439   1.4872   1.5149   1.5324   1.5592   1.5708   1.5960
     1.6077   1.6364   1.6654   1.6873   1.7141   1.7384   1.7770   1.8034
     1.8194   1.8386   1.8774   1.9102   1.9233   1.9517   1.9641   1.9956
     2.0228   2.0845   2.1469   2.2055   2.2877   2.4504   2.5513   2.6788

          k =-0.3750-0.1250-0.3750 (132616 PWs)   bands (ev):

   -18.6877 -18.5377 -18.4850 -18.3714 -18.3656 -18.3611 -18.3541 -18.3528
   -18.3437 -18.3428 -18.3426 -18.3420 -18.3310 -18.3270 -18.2800 -18.2747
   -18.2720 -18.2637 -18.2607 -18.2452 -18.2431 -18.2230 -18.2059 -18.2000
   -18.1968 -18.1951 -18.1895 -18.1882 -18.1838 -18.1837 -18.1786 -18.1704
   -18.1594 -18.1574 -18.1557 -18.1519 -18.1494 -18.1451 -18.1447 -18.1386
   -18.1368 -18.1321 -18.1309 -18.0322 -18.0188 -18.0155 -18.0087 -17.9995
    -9.5801  -9.4373  -9.3471  -9.2590  -9.1733  -9.1218  -9.0749  -9.0662
    -9.0436  -9.0066  -8.9861  -8.9226  -8.9089  -8.8406  -8.8122  -8.7664
    -8.7638  -8.7202  -8.6966  -8.6828  -8.6581  -8.6220  -8.5467  -8.5023
    -5.4407  -5.4358  -5.4301  -5.3169  -5.3039  -5.2936  -5.2518  -5.2421
    -5.2250  -5.1483  -5.1333  -5.1310  -5.1204  -5.0767  -5.0748  -5.0700
    -5.0632  -5.0496  -5.0485  -4.9750  -4.9517  -4.9253  -4.9242  -4.9203
    -4.2367  -4.0296  -3.9340  -3.7358  -3.6626  -3.4539  -3.3565  -3.1415
    -0.7141  -0.6725  -0.5082  -0.4613  -0.4156  -0.2915  -0.2179  -0.1740
    -0.1070  -0.0237   0.0709   0.1779   0.2780   0.3874   0.4294   0.4749
     0.4952   0.5269   0.5505   0.6054   0.6195   0.6421   0.7005   0.7221
     0.7989   0.8752   0.9020   0.9426   0.9898   1.0174   1.0385   1.0738
     1.1397   1.1509   1.1839   1.2284   1.2454   1.3136   1.3375   1.3846
     1.4429   1.4564   1.4747   1.5164   1.5233   1.5496   1.5741   1.5852
     1.6165   1.6481   1.6622   1.6895   1.7093   1.7501   1.7712   1.7988
     1.8217   1.8465   1.8604   1.8890   1.9248   1.9394   1.9635   2.0095
     2.0394   2.0870   2.1411   2.2100   2.2851   2.4524   2.5547   2.6709

          k = 0.3750-0.1250 0.3750 (132616 PWs)   bands (ev):

   -18.6877 -18.5377 -18.4850 -18.3714 -18.3656 -18.3611 -18.3541 -18.3528
   -18.3437 -18.3428 -18.3426 -18.3420 -18.3310 -18.3270 -18.2800 -18.2747
   -18.2720 -18.2637 -18.2607 -18.2452 -18.2431 -18.2230 -18.2059 -18.2000
   -18.1968 -18.1951 -18.1895 -18.1882 -18.1838 -18.1837 -18.1786 -18.1704
   -18.1594 -18.1574 -18.1557 -18.1519 -18.1494 -18.1451 -18.1447 -18.1386
   -18.1368 -18.1321 -18.1309 -18.0322 -18.0188 -18.0155 -18.0087 -17.9995
    -9.5794  -9.4413  -9.3422  -9.2587  -9.1703  -9.1346  -9.0688  -9.0627
    -9.0408  -9.0158  -8.9792  -8.9271  -8.9073  -8.8336  -8.8199  -8.7694
    -8.7610  -8.7184  -8.6962  -8.6829  -8.6590  -8.6211  -8.5477  -8.5020
    -5.4407  -5.4358  -5.4301  -5.3169  -5.3039  -5.2936  -5.2519  -5.2421
    -5.2250  -5.1483  -5.1333  -5.1309  -5.1205  -5.0766  -5.0748  -5.0698
    -5.0633  -5.0496  -5.0485  -4.9750  -4.9518  -4.9253  -4.9242  -4.9203
    -4.2353  -4.0342  -3.9332  -3.7286  -3.6659  -3.4583  -3.3560  -3.1388
    -0.7160  -0.6697  -0.5199  -0.4736  -0.3975  -0.2986  -0.2216  -0.1700
    -0.0940  -0.0224   0.0808   0.1778   0.2816   0.3845   0.4321   0.4610
     0.4995   0.5147   0.5512   0.5944   0.6323   0.6543   0.6889   0.7453
     0.7885   0.8570   0.9135   0.9393   0.9945   1.0081   1.0382   1.0689
     1.1429   1.1660   1.1754   1.2282   1.2462   1.2983   1.3386   1.3886
     1.4181   1.4399   1.4869   1.5219   1.5394   1.5632   1.5713   1.6029
     1.6124   1.6411   1.6702   1.6853   1.7241   1.7456   1.7639   1.7931
     1.8156   1.8390   1.8705   1.9006   1.9283   1.9439   1.9678   1.9931
     2.0429   2.0812   2.1274   2.2205   2.2874   2.4371   2.5529   2.6890

          k =-0.3750 0.1250 0.3750 (132616 PWs)   bands (ev):

   -18.6877 -18.5377 -18.4850 -18.3714 -18.3656 -18.3611 -18.3541 -18.3528
   -18.3437 -18.3428 -18.3426 -18.3420 -18.3310 -18.3270 -18.2800 -18.2747
   -18.2720 -18.2637 -18.2607 -18.2452 -18.2431 -18.2230 -18.2059 -18.2000
   -18.1968 -18.1951 -18.1895 -18.1882 -18.1838 -18.1837 -18.1786 -18.1704
   -18.1594 -18.1574 -18.1557 -18.1519 -18.1494 -18.1451 -18.1447 -18.1386
   -18.1368 -18.1321 -18.1309 -18.0322 -18.0188 -18.0155 -18.0087 -17.9995
    -9.5793  -9.4414  -9.3419  -9.2604  -9.1703  -9.1292  -9.0732  -9.0633
    -9.0322  -9.0229  -8.9796  -8.9285  -8.9091  -8.8324  -8.8155  -8.7682
    -8.7624  -8.7217  -8.6936  -8.6852  -8.6584  -8.6206  -8.5477  -8.5020
    -5.4407  -5.4358  -5.4301  -5.3169  -5.3038  -5.2938  -5.2517  -5.2420
    -5.2251  -5.1482  -5.1333  -5.1311  -5.1205  -5.0763  -5.0755  -5.0694
    -5.0634  -5.0496  -5.0484  -4.9751  -4.9517  -4.9254  -4.9242  -4.9203
    -4.2320  -4.0476  -3.9190  -3.7430  -3.6485  -3.4798  -3.3322  -3.1486
    -0.7155  -0.6726  -0.5076  -0.4659  -0.3830  -0.3095  -0.2624  -0.1530
    -0.0708  -0.0247   0.0664   0.1596   0.2711   0.3823   0.4340   0.4711
     0.4977   0.5069   0.5717   0.5983   0.6233   0.6565   0.6869   0.7281
     0.8090   0.8811   0.9018   0.9344   0.9795   1.0143   1.0428   1.0884
     1.1207   1.1568   1.1720   1.2197   1.2675   1.3049   1.3541   1.3804
     1.4325   1.4704   1.4955   1.5098   1.5341   1.5460   1.5698   1.5878
     1.6277   1.6350   1.6654   1.6928   1.7113   1.7415   1.7694   1.7972
     1.8099   1.8356   1.8653   1.9103   1.9238   1.9434   1.9616   1.9933
     2.0319   2.0687   2.1534   2.2313   2.2769   2.4545   2.5406   2.6739

          k = 0.3750-0.3750 0.1250 (132616 PWs)   bands (ev):

   -18.6877 -18.5377 -18.4850 -18.3714 -18.3656 -18.3611 -18.3541 -18.3528
   -18.3437 -18.3428 -18.3426 -18.3420 -18.3310 -18.3270 -18.2800 -18.2747
   -18.2720 -18.2637 -18.2607 -18.2452 -18.2431 -18.2230 -18.2059 -18.2000
   -18.1968 -18.1950 -18.1895 -18.1882 -18.1838 -18.1837 -18.1786 -18.1704
   -18.1594 -18.1573 -18.1557 -18.1519 -18.1494 -18.1451 -18.1447 -18.1386
   -18.1368 -18.1321 -18.1309 -18.0322 -18.0188 -18.0155 -18.0087 -17.9995
    -9.5773  -9.4469  -9.3494  -9.2358  -9.1841  -9.1169  -9.0950  -9.0515
    -9.0359  -9.0056  -8.9775  -8.9457  -8.9039  -8.8558  -8.8222  -8.7625
    -8.7434  -8.7154  -8.7100  -8.6843  -8.6558  -8.6098  -8.5448  -8.5097
    -5.4406  -5.4359  -5.4302  -5.3168  -5.3038  -5.2936  -5.2521  -5.2419
    -5.2251  -5.1484  -5.1338  -5.1321  -5.1194  -5.0771  -5.0732  -5.0709
    -5.0630  -5.0494  -5.0483  -4.9750  -4.9518  -4.9262  -4.9241  -4.9197
    -4.2256  -4.0399  -3.9177  -3.7449  -3.6561  -3.4750  -3.3433  -3.1610
    -0.7113  -0.6360  -0.5733  -0.4699  -0.3940  -0.3523  -0.1820  -0.1309
    -0.0937  -0.0327   0.1195   0.1756   0.2726   0.3745   0.4313   0.4560
     0.5088   0.5563   0.5896   0.5958   0.6492   0.6790   0.7003   0.7248
     0.7673   0.8502   0.8876   0.9202   0.9678   1.0232   1.0661   1.0847
     1.1188   1.1422   1.1737   1.2418   1.3011   1.3171   1.3662   1.3864
     1.4193   1.4498   1.4658   1.5153   1.5443   1.5580   1.5653   1.5809
     1.6075   1.6178   1.6575   1.6857   1.7058   1.7350   1.7819   1.8054
     1.8279   1.8355   1.8586   1.8920   1.9227   1.9409   1.9879   2.0273
     2.0320   2.0840   2.1203   2.1444   2.2979   2.3976   2.4880   2.6365

          k =-0.3750-0.3750-0.1250 (132616 PWs)   bands (ev):

   -18.6877 -18.5377 -18.4850 -18.3714 -18.3656 -18.3611 -18.3541 -18.3528
   -18.3437 -18.3428 -18.3426 -18.3420 -18.3310 -18.3270 -18.2800 -18.2747
   -18.2720 -18.2637 -18.2607 -18.2452 -18.2431 -18.2230 -18.2059 -18.2000
   -18.1968 -18.1950 -18.1895 -18.1882 -18.1838 -18.1837 -18.1786 -18.1704
   -18.1594 -18.1573 -18.1557 -18.1519 -18.1494 -18.1451 -18.1447 -18.1386
   -18.1368 -18.1321 -18.1309 -18.0322 -18.0188 -18.0155 -18.0087 -17.9995
    -9.5781  -9.4423  -9.3557  -9.2352  -9.1823  -9.1075  -9.0986  -9.0560
    -9.0421  -9.0042  -8.9788  -8.9400  -8.8994  -8.8646  -8.8182  -8.7604
    -8.7427  -8.7193  -8.7110  -8.6838  -8.6546  -8.6108  -8.5435  -8.5102
    -5.4407  -5.4359  -5.4302  -5.3168  -5.3038  -5.2936  -5.2521  -5.2419
    -5.2251  -5.1484  -5.1337  -5.1321  -5.1193  -5.0772  -5.0732  -5.0709
    -5.0629  -5.0493  -5.0483  -4.9750  -4.9517  -4.9262  -4.9241  -4.9197
    -4.2301  -4.0032  -3.9584  -3.7469  -3.6476  -3.4460  -3.3747  -3.1569
    -0.7123  -0.6337  -0.5554  -0.4782  -0.4219  -0.3197  -0.1864  -0.1623
    -0.0855  -0.0037   0.0930   0.1871   0.2710   0.3721   0.4099   0.4754
     0.5083   0.5467   0.5634   0.6113   0.6435   0.6833   0.6970   0.7343
     0.7763   0.8526   0.8908   0.9574   0.9623   1.0171   1.0321   1.0797
     1.1356   1.1557   1.1851   1.2501   1.2896   1.3120   1.3576   1.3723
     1.4311   1.4653   1.4787   1.4975   1.5315   1.5572   1.5724   1.5940
     1.6089   1.6306   1.6407   1.6683   1.7043   1.7180   1.7745   1.8153
     1.8319   1.8564   1.8812   1.8893   1.8953   1.9516   1.9679   2.0068
     2.0425   2.0621   2.1423   2.1688   2.2971   2.3899   2.4963   2.6262

          k = 0.3750 0.3750-0.1250 (132616 PWs)   bands (ev):

   -18.6877 -18.5377 -18.4850 -18.3714 -18.3656 -18.3611 -18.3541 -18.3528
   -18.3437 -18.3428 -18.3426 -18.3420 -18.3310 -18.3270 -18.2800 -18.2747
   -18.2720 -18.2637 -18.2607 -18.2452 -18.2431 -18.2230 -18.2059 -18.2000
   -18.1968 -18.1950 -18.1895 -18.1882 -18.1838 -18.1837 -18.1786 -18.1704
   -18.1594 -18.1573 -18.1557 -18.1519 -18.1494 -18.1451 -18.1447 -18.1386
   -18.1368 -18.1321 -18.1309 -18.0322 -18.0188 -18.0155 -18.0087 -17.9995
    -9.5781  -9.4423  -9.3557  -9.2347  -9.1835  -9.1160  -9.0962  -9.0499
    -9.0318  -9.0026  -8.9831  -8.9524  -8.8956  -8.8637  -8.8183  -8.7616
    -8.7420  -8.7172  -8.7097  -8.6848  -8.6549  -8.6113  -8.5437  -8.5101
    -5.4406  -5.4359  -5.4302  -5.3168  -5.3037  -5.2938  -5.2519  -5.2419
    -5.2251  -5.1483  -5.1338  -5.1322  -5.1194  -5.0770  -5.0742  -5.0699
    -5.0631  -5.0493  -5.0482  -4.9751  -4.9518  -4.9262  -4.9241  -4.9196
    -4.2297  -4.0070  -3.9544  -3.7431  -3.6553  -3.4462  -3.3718  -3.1559
    -0.6990  -0.6499  -0.5751  -0.4684  -0.4297  -0.3070  -0.1842  -0.1649
    -0.0759   0.0139   0.0964   0.1817   0.2804   0.3567   0.3961   0.4730
     0.5215   0.5441   0.5893   0.6034   0.6473   0.6667   0.6889   0.7378
     0.7889   0.8280   0.8794   0.9288   0.9590   1.0152   1.0503   1.0965
     1.1276   1.1547   1.1938   1.2475   1.3240   1.3361   1.3571   1.3778
     1.4116   1.4229   1.4631   1.5181   1.5276   1.5490   1.5711   1.5977
     1.6206   1.6362   1.6620   1.6733   1.6935   1.7114   1.7718   1.7983
     1.8378   1.8510   1.8677   1.8953   1.9153   1.9453   1.9753   2.0243
     2.0502   2.0578   2.1441   2.1711   2.2781   2.3817   2.4907   2.6366

          k =-0.3750 0.3750 0.1250 (132616 PWs)   bands (ev):

   -18.6877 -18.5377 -18.4850 -18.3714 -18.3656 -18.3611 -18.3541 -18.3528
   -18.3437 -18.3428 -18.3426 -18.3420 -18.3310 -18.3270 -18.2800 -18.2747
   -18.2720 -18.2637 -18.2607 -18.2452 -18.2431 -18.2230 -18.2059 -18.2000
   -18.1968 -18.1950 -18.1895 -18.1882 -18.1838 -18.1837 -18.1786 -18.1704
   -18.1594 -18.1573 -18.1557 -18.1519 -18.1494 -18.1451 -18.1447 -18.1386
   -18.1368 -18.1321 -18.1309 -18.0322 -18.0188 -18.0155 -18.0087 -17.9995
    -9.5773  -9.4466  -9.3502  -9.2372  -9.1830  -9.1095  -9.0978  -9.0521
    -9.0404  -8.9984  -8.9820  -8.9514  -8.9027  -8.8546  -8.8189  -8.7611
    -8.7425  -8.7213  -8.7085  -8.6839  -8.6556  -8.6096  -8.5448  -8.5097
    -5.4406  -5.4358  -5.4302  -5.3168  -5.3037  -5.2938  -5.2519  -5.2419
    -5.2251  -5.1483  -5.1338  -5.1322  -5.1194  -5.0769  -5.0742  -5.0701
    -5.0630  -5.0493  -5.0482  -4.9751  -4.9518  -4.9263  -4.9241  -4.9196
    -4.2240  -4.0413  -3.9173  -3.7569  -3.6435  -3.4727  -3.3417  -3.1666
    -0.7092  -0.6433  -0.5523  -0.4700  -0.3993  -0.3590  -0.1676  -0.1325
    -0.1007  -0.0337   0.1029   0.1675   0.2717   0.3756   0.4324   0.4677
     0.5120   0.5385   0.5883   0.6128   0.6433   0.6697   0.6918   0.7251
     0.7773   0.8511   0.8938   0.9369   0.9779   1.0103   1.0527   1.0797
     1.1099   1.1445   1.1832   1.2640   1.2851   1.3420   1.3720   1.3993
     1.4144   1.4413   1.4780   1.5023   1.5312   1.5521   1.5580   1.5892
     1.6122   1.6372   1.6535   1.6891   1.7027   1.7382   1.7712   1.7941
     1.8154   1.8475   1.8626   1.8825   1.9216   1.9380   1.9676   2.0220
     2.0485   2.0738   2.1269   2.1613   2.3277   2.3879   2.4710   2.6223

          k =-0.3750-0.3750 0.3750 (132612 PWs)   bands (ev):

   -18.6877 -18.5377 -18.4850 -18.3714 -18.3656 -18.3611 -18.3541 -18.3528
   -18.3437 -18.3428 -18.3426 -18.3420 -18.3310 -18.3270 -18.2800 -18.2747
   -18.2720 -18.2637 -18.2607 -18.2452 -18.2431 -18.2230 -18.2059 -18.2000
   -18.1968 -18.1950 -18.1895 -18.1882 -18.1838 -18.1837 -18.1786 -18.1704
   -18.1594 -18.1573 -18.1557 -18.1519 -18.1494 -18.1451 -18.1447 -18.1386
   -18.1368 -18.1321 -18.1309 -18.0322 -18.0188 -18.0155 -18.0087 -17.9995
    -9.5773  -9.4322  -9.3505  -9.2559  -9.1785  -9.1357  -9.0782  -9.0636
    -9.0314  -9.0158  -8.9988  -8.9296  -8.8924  -8.8477  -8.8071  -8.7578
    -8.7434  -8.7201  -8.6987  -8.6877  -8.6567  -8.6249  -8.5441  -8.5110
    -5.4407  -5.4358  -5.4302  -5.3168  -5.3038  -5.2938  -5.2518  -5.2420
    -5.2252  -5.1483  -5.1333  -5.1310  -5.1204  -5.0761  -5.0751  -5.0691
    -5.0636  -5.0494  -5.0482  -4.9747  -4.9517  -4.9259  -4.9241  -4.9197
    -4.1234  -3.9277  -3.8473  -3.7885  -3.6618  -3.5887  -3.5113  -3.3360
    -0.4796  -0.4493  -0.3868  -0.3140  -0.2196  -0.1745  -0.1511  -0.0975
    -0.0306   0.0272   0.1212   0.1934   0.2711   0.3163   0.3456   0.4078
     0.4621   0.4885   0.5179   0.5421   0.5822   0.6223   0.6450   0.6779
     0.7947   0.8255   0.8772   0.9423   0.9530   0.9728   1.0420   1.0592
     1.0826   1.1178   1.1377   1.1524   1.1952   1.2581   1.2705   1.3495
     1.3741   1.4113   1.4536   1.5088   1.5341   1.5692   1.6073   1.6339
     1.6567   1.6621   1.6952   1.7105   1.7399   1.7647   1.7932   1.8272
     1.8404   1.8521   1.8704   1.8886   1.9167   1.9348   1.9536   1.9925
     2.0049   2.0249   2.0797   2.0988   2.1269   2.1675   2.2284   2.3749

          k =-0.3750 0.3750-0.3750 (132612 PWs)   bands (ev):

   -18.6877 -18.5377 -18.4850 -18.3714 -18.3656 -18.3611 -18.3541 -18.3528
   -18.3437 -18.3428 -18.3426 -18.3420 -18.3310 -18.3270 -18.2800 -18.2747
   -18.2720 -18.2637 -18.2607 -18.2452 -18.2431 -18.2230 -18.2059 -18.2000
   -18.1968 -18.1950 -18.1895 -18.1882 -18.1838 -18.1837 -18.1786 -18.1704
   -18.1594 -18.1573 -18.1557 -18.1519 -18.1494 -18.1451 -18.1447 -18.1386
   -18.1368 -18.1321 -18.1309 -18.0322 -18.0188 -18.0155 -18.0087 -17.9995
    -9.5766  -9.4369  -9.3446  -9.2556  -9.1797  -9.1341  -9.0793  -9.0657
    -9.0403  -9.0158  -8.9914  -8.9236  -8.8954  -8.8455  -8.8090  -8.7605
    -8.7434  -8.7187  -8.6991  -8.6876  -8.6574  -8.6231  -8.5452  -8.5106
    -5.4407  -5.4358  -5.4302  -5.3168  -5.3039  -5.2936  -5.2519  -5.2420
    -5.2251  -5.1484  -5.1333  -5.1310  -5.1204  -5.0766  -5.0741  -5.0697
    -5.0635  -5.0495  -5.0482  -4.9747  -4.9517  -4.9259  -4.9241  -4.9197
    -4.1194  -3.9467  -3.8455  -3.7697  -3.6430  -3.6096  -3.5195  -3.3313
    -0.4908  -0.4297  -0.3785  -0.2997  -0.2540  -0.1775  -0.1394  -0.0985
    -0.0483   0.0010   0.1385   0.2252   0.2660   0.3116   0.3534   0.3813
     0.4726   0.5045   0.5196   0.5467   0.5819   0.6128   0.6409   0.6812
     0.8040   0.8314   0.8911   0.9332   0.9627   1.0021   1.0242   1.0395
     1.0713   1.0958   1.1413   1.1591   1.1794   1.2444   1.2691   1.3475
     1.3550   1.4410   1.4946   1.5177   1.5293   1.5666   1.5983   1.6135
     1.6437   1.6668   1.6925   1.7236   1.7454   1.7707   1.8032   1.8181
     1.8398   1.8581   1.8700   1.8908   1.9124   1.9356   1.9561   1.9849
     2.0067   2.0320   2.0624   2.0848   2.1096   2.1818   2.2473   2.3776

          k = 0.3750-0.3750-0.3750 (132612 PWs)   bands (ev):

   -18.6877 -18.5377 -18.4850 -18.3714 -18.3656 -18.3611 -18.3541 -18.3528
   -18.3437 -18.3428 -18.3426 -18.3420 -18.3310 -18.3270 -18.2800 -18.2747
   -18.2720 -18.2637 -18.2607 -18.2452 -18.2431 -18.2230 -18.2059 -18.2000
   -18.1968 -18.1951 -18.1895 -18.1882 -18.1838 -18.1837 -18.1786 -18.1704
   -18.1594 -18.1573 -18.1557 -18.1519 -18.1494 -18.1451 -18.1447 -18.1386
   -18.1368 -18.1321 -18.1309 -18.0322 -18.0188 -18.0155 -18.0087 -17.9995
    -9.5766  -9.4365  -9.3458  -9.2559  -9.1798  -9.1300  -9.0795  -9.0663
    -9.0364  -9.0232  -8.9894  -8.9285  -8.8945  -8.8443  -8.8044  -8.7607
    -8.7418  -8.7243  -8.6949  -8.6910  -8.6569  -8.6228  -8.5452  -8.5106
    -5.4407  -5.4358  -5.4302  -5.3168  -5.3038  -5.2938  -5.2518  -5.2419
    -5.2251  -5.1483  -5.1333  -5.1311  -5.1204  -5.0761  -5.0751  -5.0692
    -5.0636  -5.0494  -5.0481  -4.9748  -4.9516  -4.9260  -4.9241  -4.9197
    -4.1147  -3.9565  -3.8449  -3.7641  -3.6646  -3.5904  -3.5065  -3.3433
    -0.4920  -0.4302  -0.3521  -0.3148  -0.2447  -0.1757  -0.1347  -0.0830
    -0.0612   0.0029   0.0640   0.2327   0.2556   0.3314   0.3498   0.4077
     0.4710   0.5102   0.5361   0.5442   0.5691   0.6153   0.6419   0.6525
     0.8264   0.8599   0.8707   0.9250   0.9594   0.9881   1.0261   1.0337
     1.0853   1.0969   1.1324   1.1468   1.1867   1.2621   1.3003   1.3569
     1.3916   1.4230   1.4630   1.4869   1.5398   1.5746   1.5953   1.6264
     1.6497   1.6763   1.6847   1.7294   1.7524   1.7609   1.7889   1.8161
     1.8328   1.8531   1.8687   1.8857   1.9116   1.9263   1.9446   1.9707
     2.0140   2.0441   2.0578   2.0982   2.1547   2.1853   2.2222   2.3607

     highest occupied level (ev):     3.1822

!    total energy              =   -2256.27788872 Ry
     estimated scf accuracy    <          5.3E-11 Ry

     The total energy is the sum of the following terms:
     one-electron contribution =   -1002.30000340 Ry
     hartree contribution      =     629.24144884 Ry
     xc contribution           =    -647.61033057 Ry
     ewald contribution        =   -1235.60900359 Ry

     convergence has been achieved in  15 iterations

     Forces acting on atoms (cartesian axes, Ry/au):

     atom    1 type  1   force =     0.00267132    0.04190110    0.04655053
     atom    2 type  2   force =    -0.00972080   -0.01725202   -0.00856779
     atom    3 type  3   force =    -0.02088537   -0.03743128   -0.04086281
     atom    4 type  3   force =    -0.00050706    0.00432721   -0.00350943
     atom    5 type  3   force =     0.00005115   -0.00841939   -0.00236334
     atom    6 type  1   force =     0.00218621   -0.00047418   -0.00479943
     atom    7 type  2   force =    -0.00258430    0.00196982   -0.00487813
     atom    8 type  3   force =    -0.01340493   -0.00422215   -0.00201214
     atom    9 type  3   force =     0.00556860    0.00150152    0.01406763
     atom   10 type  3   force =    -0.00292734   -0.01045303   -0.00067526
     atom   11 type  1   force =    -0.00171695    0.00108277    0.00182407
     atom   12 type  2   force =     0.00772233    0.01088801   -0.00904296
     atom   13 type  3   force =    -0.00170579    0.00558015    0.00175394
     atom   14 type  3   force =    -0.00241217    0.00536374   -0.00141089
     atom   15 type  3   force =     0.00239732   -0.00284728    0.00405343
     atom   16 type  1   force =     0.00050721   -0.00000461   -0.00237030
     atom   17 type  2   force =     0.00875493   -0.00126598    0.00978739
     atom   18 type  3   force =    -0.00534411    0.00833181    0.00350991
     atom   19 type  3   force =     0.00763509    0.00149446    0.00918888
     atom   20 type  3   force =     0.00605110    0.01106317   -0.00121969
     atom   21 type  1   force =     0.01611425   -0.01430620   -0.00031831
     atom   22 type  2   force =     0.02838457   -0.00027383    0.00015870
     atom   23 type  3   force =     0.00938860    0.00428276    0.00574343
     atom   24 type  3   force =     0.00001659   -0.00199234    0.00144747
     atom   25 type  3   force =    -0.00344594   -0.00613998   -0.00381961
     atom   26 type  1   force =    -0.00448692   -0.00596686   -0.00262260
     atom   27 type  2   force =     0.00275589   -0.00457931    0.00041589
     atom   28 type  3   force =     0.00650966    0.00114358   -0.00375483
     atom   29 type  3   force =    -0.00352721   -0.00133002    0.00364622
     atom   30 type  3   force =     0.00263857    0.00948084    0.00355832
     atom   31 type  1   force =     0.00048307    0.00455513    0.00347781
     atom   32 type  2   force =    -0.00130011   -0.01617025   -0.00681998
     atom   33 type  3   force =     0.00893952   -0.00420190    0.00214902
     atom   34 type  3   force =    -0.00984520    0.02123468    0.00296693
     atom   35 type  3   force =    -0.00753896    0.01515089    0.00516347
     atom   36 type  1   force =    -0.00126960   -0.00048808   -0.00857810
     atom   37 type  2   force =    -0.01382646    0.00534283   -0.00917334
     atom   38 type  3   force =    -0.00879786   -0.00386559   -0.00611597
     atom   39 type  3   force =    -0.00159823   -0.00298980    0.00821118
     atom   40 type  3   force =    -0.00193067   -0.01002037   -0.00475932

     Total force =     0.115698     Total SCF correction =     0.000030


     Computing stress (Cartesian axis) and pressure

          total   stress  (Ry/bohr**3)                   (kbar)     P=       -5.70
  -0.00005210  -0.00000593   0.00000054           -7.66       -0.87        0.08
  -0.00000593  -0.00003417   0.00001632           -0.87       -5.03        2.40
   0.00000054   0.00001632  -0.00003003            0.08        2.40       -4.42

 
     init_run     :     19.89s CPU     17.02s WALL (       1 calls)
     electrons    :    201.76s CPU    213.34s WALL (       1 calls)
     forces       :      8.80s CPU      3.85s WALL (       1 calls)
     stress       :     31.92s CPU     30.51s WALL (       1 calls)

     Called by init_run:
     wfcinit      :     12.17s CPU     13.98s WALL (       1 calls)
                                       13.98s GPU  (       1 calls)
     potinit      :      4.51s CPU      1.40s WALL (       1 calls)
     hinit0       :      2.69s CPU      0.97s WALL (       1 calls)

     Called by electrons:
     c_bands      :    121.39s CPU    171.61s WALL (      16 calls)
     sum_band     :     21.62s CPU     20.57s WALL (      16 calls)
                                       20.57s GPU  (      16 calls)
     v_of_rho     :     54.48s CPU     16.47s WALL (      16 calls)
     mix_rho      :      6.28s CPU      4.84s WALL (      16 calls)

     Called by c_bands:
     init_us_2    :      2.43s CPU      3.13s WALL (     280 calls)
                                        3.13s GPU  (     280 calls)
     cegterg      :     79.71s CPU    127.50s WALL (     128 calls)

     Called by *egterg:
     cdiaghg      :     13.48s CPU     25.37s WALL (     640 calls)
                                       25.34s GPU  (     640 calls)
     h_psi        :     54.36s CPU     73.97s WALL (     656 calls)
                                       73.53s GPU  (     656 calls)
     g_psi        :      0.00s CPU      0.36s WALL (     520 calls)
                                        0.35s GPU  (     520 calls)

     Called by h_psi:
     h_psi:calbec :      0.28s CPU      9.85s WALL (     656 calls)
                                        9.84s GPU  (     656 calls)
     vloc_psi     :     39.74s CPU     54.33s WALL (     656 calls)
                                       53.41s GPU  (     656 calls)
     add_vuspsi   :      0.33s CPU      9.70s WALL (     656 calls)
                                        9.69s GPU  (     656 calls)

     General routines
     calbec       :      0.28s CPU      0.38s WALL (     696 calls)
     fft          :     25.77s CPU      6.57s WALL (     185 calls)
                                        0.00s GPU  (       6 calls)
     ffts         :      2.62s CPU      0.68s WALL (      16 calls)
     fftw         :      0.62s CPU     62.90s WALL (   10536 calls)
                                       46.92s GPU  (   10536 calls)
 
     Parallel routines
 
     PWSCF        :   4m23.02s CPU   4m25.46s WALL

 
   This run was terminated on:  20:57:46  22Apr2021            

=------------------------------------------------------------------------------=
   JOB DONE.
=------------------------------------------------------------------------------=
