
     Program PWSCF v.6.7MaX starts on 22Apr2021 at 20: 9:28 

     This program is part of the open-source Quantum ESPRESSO suite
     for quantum simulation of materials; please cite
         "P. Giannozzi et al., J. Phys.:Condens. Matter 21 395502 (2009);
         "P. Giannozzi et al., J. Phys.:Condens. Matter 29 465901 (2017);
         "P. Giannozzi et al., J. Chem. Phys. 152 154105 (2020);
          URL http://www.quantum-espresso.org", 
     in publications or presentations arising from this work. More details at
     http://www.quantum-espresso.org/quote

     Parallel version (MPI & OpenMP), running on      16 processor cores
     Number of MPI processes:                 4
     Threads/MPI process:                     4

     MPI processes distributed on     1 nodes
     K-points division:     npool     =       4
     Reading input from ESP_54.pwi
Warning: card &CELL ignored
Warning: card / ignored

     Current dimensions of program PWSCF are:
     Max number of different atomic species (ntypx) = 10
     Max number of k-points (npk) =  40000
     Max angular momentum in pseudopotentials (lmaxx) =  3
     Message from routine read_pp_mesh:
     mesh size missing, using the one in header
     Message from routine read_pp_mesh:
     mesh size missing, using the one in header
     Message from routine read_pp_mesh:
     mesh size missing, using the one in header

     Subspace diagonalization in iterative solution of the eigenvalue problem:
     a serial algorithm will be used

 
     G-vector sticks info
     --------------------
     sticks:   dense  smooth     PW     G-vecs:    dense   smooth      PW
     Sum       12589   12589   3289              1061107  1061107  140905
 
     Using Slab Decomposition
 


     bravais-lattice index     =            0
     lattice parameter (alat)  =      23.7585  a.u.
     unit-cell volume          =   13410.8736 (a.u.)^3
     number of atoms/cell      =           40
     number of atomic types    =            3
     number of electrons       =       352.00
     number of Kohn-Sham states=          176
     kinetic-energy cutoff     =      70.0000  Ry
     charge density cutoff     =     280.0000  Ry
     scf convergence threshold =      1.0E-10
     mixing beta               =       0.7000
     number of iterations used =            8  plain     mixing
     Exchange-correlation= PBESOL
                           (   1   4  10   8   0   0   0)

     GPU acceleration is ACTIVE.


     celldm(1)=  23.758500  celldm(2)=   0.000000  celldm(3)=   0.000000
     celldm(4)=   0.000000  celldm(5)=   0.000000  celldm(6)=   0.000000

     crystal axes: (cart. coord. in units of alat)
               a(1) = (   1.000000   0.000000   0.000000 )  
               a(2) = (   0.000000   1.000000   0.000000 )  
               a(3) = (   0.000000   0.000000   1.000000 )  

     reciprocal axes: (cart. coord. in units 2 pi/alat)
               b(1) = (  1.000000  0.000000  0.000000 )  
               b(2) = (  0.000000  1.000000  0.000000 )  
               b(3) = (  0.000000  0.000000  1.000000 )  


     PseudoPot. # 1 for Cs read from file:
     /m100/home/userexternal/lmonacel/espresso/pseudo/Cs-nc-pbesol.upf
     MD5 check sum: 9d2f2206a14dc5b3b3f3fbfae186bed4
     Pseudo is Norm-conserving + core correction, Zval =  9.0
     Generated using ONCVPSP code by D. R. Hamann
     Using radial grid of 2384 points,  8 beta functions with: 
                l(1) =   0
                l(2) =   0
                l(3) =   1
                l(4) =   1
                l(5) =   2
                l(6) =   2
                l(7) =   3
                l(8) =   3

     PseudoPot. # 2 for Sn read from file:
     /m100/home/userexternal/lmonacel/espresso/pseudo/Sn-nc-pbesol.upf
     MD5 check sum: c2995d571af40102bfea7461443d92cf
     Pseudo is Norm-conserving + core correction, Zval = 14.0
     Generated using ONCVPSP code by D. R. Hamann
     Using radial grid of 1628 points,  6 beta functions with: 
                l(1) =   0
                l(2) =   0
                l(3) =   1
                l(4) =   1
                l(5) =   2
                l(6) =   2

     PseudoPot. # 3 for I  read from file:
     /m100/home/userexternal/lmonacel/espresso/pseudo/I-nc-pbesol.upf
     MD5 check sum: 80ed5ceb2eb9c553cfb6760a299d9c5b
     Pseudo is Norm-conserving + core correction, Zval =  7.0
     Generated using ONCVPSP code by D. R. Hamann
     Using radial grid of 1182 points,  6 beta functions with: 
                l(1) =   0
                l(2) =   0
                l(3) =   1
                l(4) =   1
                l(5) =   2
                l(6) =   2

     atomic species   valence    mass     pseudopotential
        Cs             9.00   132.90545     Cs( 1.00)
        Sn            14.00   118.71000     Sn( 1.00)
        I              7.00   126.90447     I ( 1.00)

     No symmetry found



   Cartesian axes

     site n.     atom                  positions (alat units)
         1           Cs  tau(   1) = (   0.2438607   0.2556187   0.2506449  )
         2           Sn  tau(   2) = (   0.0112237   0.0073091  -0.0126688  )
         3           I   tau(   3) = (   0.2602889   0.0303050  -0.0094948  )
         4           I   tau(   4) = (   0.0397335   0.0015384   0.2366833  )
         5           I   tau(   5) = (  -0.0175520   0.2314036  -0.0342019  )
         6           Cs  tau(   6) = (   0.2640256   0.2664178   0.7612796  )
         7           Sn  tau(   7) = (  -0.0001581  -0.0027947   0.4930732  )
         8           I   tau(   8) = (   0.2565607   0.0210900   0.5262452  )
         9           I   tau(   9) = (   0.0007753  -0.0260769   0.7300849  )
        10           I   tau(  10) = (  -0.0168522   0.2551225   0.4880797  )
        11           Cs  tau(  11) = (   0.2417708   0.7428298   0.2119095  )
        12           Sn  tau(  12) = (  -0.0249540   0.5021158   0.0012727  )
        13           I   tau(  13) = (   0.2289672   0.5214099  -0.0105768  )
        14           I   tau(  14) = (  -0.0026602   0.4739564   0.2464339  )
        15           I   tau(  15) = (   0.0075590   0.7391262   0.0128979  )
        16           Cs  tau(  16) = (   0.2333238   0.7487516   0.7837528  )
        17           Sn  tau(  17) = (  -0.0041223   0.5015361   0.5159105  )
        18           I   tau(  18) = (   0.2498936   0.4915911   0.5006713  )
        19           I   tau(  19) = (  -0.0382759   0.5061982   0.7479012  )
        20           I   tau(  20) = (   0.0184934   0.7497022   0.5071928  )
        21           Cs  tau(  21) = (   0.7300240   0.2111033   0.2332859  )
        22           Sn  tau(  22) = (   0.5209448   0.0044138   0.0044646  )
        23           I   tau(  23) = (   0.7666215  -0.0258355   0.0207839  )
        24           I   tau(  24) = (   0.4650237  -0.0203307   0.2417882  )
        25           I   tau(  25) = (   0.5409202   0.2692194   0.0354673  )
        26           Cs  tau(  26) = (   0.7503142   0.2660326   0.7477525  )
        27           Sn  tau(  27) = (   0.4998835   0.0021841   0.5008362  )
        28           I   tau(  28) = (   0.7587014  -0.0412275   0.4609783  )
        29           I   tau(  29) = (   0.5215147   0.0125397   0.7589161  )
        30           I   tau(  30) = (   0.5092521   0.2493107   0.4873728  )
        31           Cs  tau(  31) = (   0.7588335   0.7565864   0.2654854  )
        32           Sn  tau(  32) = (   0.4861736   0.5196049   0.0053931  )
        33           I   tau(  33) = (   0.7447901   0.4717286   0.0285299  )
        34           I   tau(  34) = (   0.4933881   0.5240220   0.2566051  )
        35           I   tau(  35) = (   0.5202916   0.7560002  -0.0170433  )
        36           Cs  tau(  36) = (   0.7757361   0.7809687   0.7234151  )
        37           Sn  tau(  37) = (   0.4877700   0.5148609   0.5127358  )
        38           I   tau(  38) = (   0.7418764   0.4890661   0.5142483  )
        39           I   tau(  39) = (   0.5038584   0.4827618   0.7527562  )
        40           I   tau(  40) = (   0.4707799   0.7616800   0.5215573  )

     number of k points=    32
                       cart. coord. in units 2pi/alat
        k(    1) = (   0.1250000   0.1250000   0.1250000), wk =   0.0625000
        k(    2) = (   0.1250000   0.1250000   0.3750000), wk =   0.0625000
        k(    3) = (   0.1250000   0.3750000   0.3750000), wk =   0.0625000
        k(    4) = (   0.3750000   0.3750000   0.3750000), wk =   0.0625000
        k(    5) = (  -0.1250000  -0.1250000   0.1250000), wk =   0.0625000
        k(    6) = (  -0.1250000   0.1250000  -0.1250000), wk =   0.0625000
        k(    7) = (   0.1250000  -0.1250000  -0.1250000), wk =   0.0625000
        k(    8) = (  -0.1250000  -0.1250000   0.3750000), wk =   0.0625000
        k(    9) = (  -0.1250000   0.1250000  -0.3750000), wk =   0.0625000
        k(   10) = (   0.1250000  -0.1250000  -0.3750000), wk =   0.0625000
        k(   11) = (   0.3750000  -0.1250000   0.1250000), wk =   0.0625000
        k(   12) = (  -0.3750000  -0.1250000  -0.1250000), wk =   0.0625000
        k(   13) = (   0.3750000   0.1250000  -0.1250000), wk =   0.0625000
        k(   14) = (  -0.3750000   0.1250000   0.1250000), wk =   0.0625000
        k(   15) = (  -0.1250000   0.3750000   0.1250000), wk =   0.0625000
        k(   16) = (  -0.1250000  -0.3750000  -0.1250000), wk =   0.0625000
        k(   17) = (   0.1250000   0.3750000  -0.1250000), wk =   0.0625000
        k(   18) = (   0.1250000  -0.3750000   0.1250000), wk =   0.0625000
        k(   19) = (  -0.1250000  -0.3750000   0.3750000), wk =   0.0625000
        k(   20) = (  -0.1250000   0.3750000  -0.3750000), wk =   0.0625000
        k(   21) = (   0.1250000  -0.3750000  -0.3750000), wk =   0.0625000
        k(   22) = (   0.3750000   0.1250000  -0.3750000), wk =   0.0625000
        k(   23) = (  -0.3750000  -0.1250000  -0.3750000), wk =   0.0625000
        k(   24) = (   0.3750000  -0.1250000   0.3750000), wk =   0.0625000
        k(   25) = (  -0.3750000   0.1250000   0.3750000), wk =   0.0625000
        k(   26) = (   0.3750000  -0.3750000   0.1250000), wk =   0.0625000
        k(   27) = (  -0.3750000  -0.3750000  -0.1250000), wk =   0.0625000
        k(   28) = (   0.3750000   0.3750000  -0.1250000), wk =   0.0625000
        k(   29) = (  -0.3750000   0.3750000   0.1250000), wk =   0.0625000
        k(   30) = (  -0.3750000  -0.3750000   0.3750000), wk =   0.0625000
        k(   31) = (  -0.3750000   0.3750000  -0.3750000), wk =   0.0625000
        k(   32) = (   0.3750000  -0.3750000  -0.3750000), wk =   0.0625000

     Dense  grid:  1061107 G-vectors     FFT dimensions: ( 128, 128, 128)

     Estimated max dynamical RAM per process >       6.82 GB

     Estimated total dynamical RAM >      27.27 GB

     Initial potential from superposition of free atoms

     starting charge  351.69472, renormalised to  352.00000
     Starting wfcs are  208 randomized atomic wfcs

     total cpu time spent up to now is       17.7 secs

     Self-consistent Calculation

     iteration #  1     ecut=    70.00 Ry     beta= 0.70
     Davidson diagonalization with overlap
     ethr =  1.00E-02,  avg # of iterations =  2.0

     Threshold (ethr) on eigenvalues was too large:
     Diagonalizing with lowered threshold

     Davidson diagonalization with overlap
     ethr =  2.18E-04,  avg # of iterations =  4.0

     total cpu time spent up to now is       38.7 secs

     total energy              =   -2256.02574457 Ry
     estimated scf accuracy    <       0.66395138 Ry

     iteration #  2     ecut=    70.00 Ry     beta= 0.70
     Davidson diagonalization with overlap
     ethr =  1.89E-04,  avg # of iterations =  3.3

     total cpu time spent up to now is       51.5 secs

     total energy              =   -2256.22684457 Ry
     estimated scf accuracy    <       0.31330975 Ry

     iteration #  3     ecut=    70.00 Ry     beta= 0.70
     Davidson diagonalization with overlap
     ethr =  8.90E-05,  avg # of iterations =  3.0

     total cpu time spent up to now is       63.3 secs

     total energy              =   -2256.28722676 Ry
     estimated scf accuracy    <       0.02965135 Ry

     iteration #  4     ecut=    70.00 Ry     beta= 0.70
     Davidson diagonalization with overlap
     ethr =  8.42E-06,  avg # of iterations =  4.2

     total cpu time spent up to now is       76.3 secs

     total energy              =   -2256.29687564 Ry
     estimated scf accuracy    <       0.00460710 Ry

     iteration #  5     ecut=    70.00 Ry     beta= 0.70
     Davidson diagonalization with overlap
     ethr =  1.31E-06,  avg # of iterations =  3.3

     total cpu time spent up to now is       88.9 secs

     total energy              =   -2256.29775545 Ry
     estimated scf accuracy    <       0.00107029 Ry

     iteration #  6     ecut=    70.00 Ry     beta= 0.70
     Davidson diagonalization with overlap
     ethr =  3.04E-07,  avg # of iterations =  3.9

     total cpu time spent up to now is      101.4 secs

     total energy              =   -2256.29795258 Ry
     estimated scf accuracy    <       0.00013099 Ry

     iteration #  7     ecut=    70.00 Ry     beta= 0.70
     Davidson diagonalization with overlap
     ethr =  3.72E-08,  avg # of iterations =  5.8

     total cpu time spent up to now is      116.1 secs

     total energy              =   -2256.29800338 Ry
     estimated scf accuracy    <       0.00002392 Ry

     iteration #  8     ecut=    70.00 Ry     beta= 0.70
     Davidson diagonalization with overlap
     ethr =  6.79E-09,  avg # of iterations =  4.0

     total cpu time spent up to now is      129.5 secs

     total energy              =   -2256.29801119 Ry
     estimated scf accuracy    <       0.00000490 Ry

     iteration #  9     ecut=    70.00 Ry     beta= 0.70
     Davidson diagonalization with overlap
     ethr =  1.39E-09,  avg # of iterations =  3.9

     total cpu time spent up to now is      142.7 secs

     total energy              =   -2256.29801272 Ry
     estimated scf accuracy    <       0.00000075 Ry

     iteration # 10     ecut=    70.00 Ry     beta= 0.70
     Davidson diagonalization with overlap
     ethr =  2.14E-10,  avg # of iterations =  3.4

     total cpu time spent up to now is      156.9 secs

     total energy              =   -2256.29801292 Ry
     estimated scf accuracy    <       0.00000026 Ry

     iteration # 11     ecut=    70.00 Ry     beta= 0.70
     Davidson diagonalization with overlap
     ethr =  7.46E-11,  avg # of iterations =  4.0

     total cpu time spent up to now is      170.5 secs

     total energy              =   -2256.29801300 Ry
     estimated scf accuracy    <       0.00000003 Ry

     iteration # 12     ecut=    70.00 Ry     beta= 0.70
     Davidson diagonalization with overlap
     ethr =  8.61E-12,  avg # of iterations =  5.6

     total cpu time spent up to now is      186.8 secs

     total energy              =   -2256.29801302 Ry
     estimated scf accuracy    <       0.00000001 Ry

     iteration # 13     ecut=    70.00 Ry     beta= 0.70
     Davidson diagonalization with overlap
     ethr =  3.65E-12,  avg # of iterations =  3.7

     total cpu time spent up to now is      200.2 secs

     total energy              =   -2256.29801303 Ry
     estimated scf accuracy    <          1.6E-09 Ry

     iteration # 14     ecut=    70.00 Ry     beta= 0.70
     Davidson diagonalization with overlap
     ethr =  4.57E-13,  avg # of iterations =  5.6

     total cpu time spent up to now is      216.2 secs

     total energy              =   -2256.29801303 Ry
     estimated scf accuracy    <          1.4E-10 Ry

     iteration # 15     ecut=    70.00 Ry     beta= 0.70
     Davidson diagonalization with overlap
     ethr =  1.00E-13,  avg # of iterations =  4.7

     total cpu time spent up to now is      230.1 secs

     End of self-consistent calculation

          k = 0.1250 0.1250 0.1250 (132670 PWs)   bands (ev):

   -18.4892 -18.4592 -18.3924 -18.3813 -18.3498 -18.3467 -18.3397 -18.3334
   -18.3301 -18.3268 -18.3224 -18.3153 -18.3151 -18.3090 -18.2991 -18.2956
   -18.2865 -18.2683 -18.2617 -18.2581 -18.2570 -18.2555 -18.2554 -18.2482
   -18.2473 -18.2457 -18.2452 -18.2376 -18.2342 -18.2334 -18.2303 -18.2236
   -18.2140 -18.2072 -18.2065 -18.2018 -18.1911 -18.1883 -18.1866 -18.1805
   -18.1758 -18.1681 -18.1636 -18.1632 -18.1507 -18.1455 -18.1391 -18.1275
    -9.4329  -9.2963  -9.2883  -9.2396  -9.1331  -9.1167  -9.0882  -9.0583
    -9.0120  -8.9780  -8.9323  -8.9123  -8.8689  -8.8645  -8.8299  -8.8030
    -8.7677  -8.7252  -8.7027  -8.6573  -8.6274  -8.5775  -8.5129  -8.5045
    -5.2572  -5.2462  -5.2411  -5.2358  -5.2323  -5.2194  -5.1946  -5.1730
    -5.1685  -5.1598  -5.1549  -5.1454  -5.1183  -5.1101  -5.1092  -5.1063
    -5.0993  -5.0947  -5.0878  -5.0830  -5.0789  -5.0069  -4.9979  -4.9866
    -4.4391  -3.9547  -3.9156  -3.8786  -3.4035  -3.3698  -3.3245  -2.7441
    -0.8177  -0.6737  -0.6516  -0.5980  -0.5612  -0.5312  -0.4818  -0.4387
    -0.3768  -0.3377  -0.2966  -0.2270   0.4195   0.4513   0.4944   0.6189
     0.6777   0.6817   0.7142   0.7653   0.7975   0.8854   0.9049   0.9468
     0.9895   1.0182   1.0530   1.1040   1.1114   1.1420   1.1549   1.1835
     1.2178   1.2460   1.2605   1.2882   1.3069   1.3379   1.3569   1.3813
     1.3973   1.4166   1.4369   1.4546   1.4775   1.5170   1.5569   1.5726
     1.5819   1.6115   1.6530   1.6664   1.6961   1.7127   1.7346   1.7663
     1.7736   1.8156   1.8544   1.9385   1.9821   2.0367   2.1023   2.1365
     2.1684   2.1891   2.2616   2.3341   2.6062   2.6971   2.8035   3.1196

          k = 0.1250 0.1250 0.3750 (132608 PWs)   bands (ev):

   -18.4892 -18.4592 -18.3924 -18.3813 -18.3498 -18.3467 -18.3397 -18.3333
   -18.3301 -18.3268 -18.3224 -18.3153 -18.3151 -18.3090 -18.2991 -18.2956
   -18.2865 -18.2683 -18.2617 -18.2581 -18.2570 -18.2555 -18.2554 -18.2482
   -18.2473 -18.2457 -18.2452 -18.2376 -18.2342 -18.2334 -18.2303 -18.2236
   -18.2140 -18.2072 -18.2065 -18.2018 -18.1911 -18.1883 -18.1866 -18.1805
   -18.1758 -18.1681 -18.1636 -18.1632 -18.1507 -18.1455 -18.1391 -18.1275
    -9.4205  -9.3081  -9.2844  -9.2356  -9.1459  -9.1210  -9.0866  -9.0728
    -9.0117  -8.9678  -8.9388  -8.9205  -8.8758  -8.8539  -8.8143  -8.8031
    -8.7549  -8.7149  -8.6968  -8.6650  -8.6312  -8.5845  -8.5132  -8.5082
    -5.2571  -5.2459  -5.2409  -5.2358  -5.2320  -5.2194  -5.1950  -5.1737
    -5.1692  -5.1593  -5.1549  -5.1439  -5.1181  -5.1105  -5.1089  -5.1057
    -5.0994  -5.0956  -5.0882  -5.0832  -5.0790  -5.0069  -4.9979  -4.9868
    -4.3164  -4.0837  -3.8199  -3.7657  -3.5771  -3.5067  -3.2453  -2.9557
    -0.8092  -0.6430  -0.5934  -0.5639  -0.5330  -0.4403  -0.4007  -0.3282
    -0.0932  -0.0603  -0.0305   0.0565   0.4054   0.4435   0.4621   0.5430
     0.5721   0.6081   0.6583   0.6747   0.7194   0.7347   0.7584   0.8049
     0.8930   0.9180   0.9588   0.9770   1.0456   1.0975   1.1422   1.1609
     1.1978   1.2246   1.2476   1.2768   1.3184   1.3391   1.3770   1.3956
     1.4129   1.4211   1.4591   1.4908   1.5209   1.5269   1.5501   1.5852
     1.6049   1.6268   1.6563   1.6644   1.6923   1.7385   1.7519   1.7780
     1.8028   1.8228   1.8445   1.8891   1.9440   1.9827   2.0264   2.0637
     2.0965   2.1699   2.2237   2.3288   2.3889   2.5239   2.6868   2.8587

          k = 0.1250 0.3750 0.3750 (132616 PWs)   bands (ev):

   -18.4892 -18.4592 -18.3924 -18.3813 -18.3498 -18.3466 -18.3397 -18.3333
   -18.3301 -18.3268 -18.3224 -18.3153 -18.3151 -18.3090 -18.2991 -18.2956
   -18.2865 -18.2683 -18.2617 -18.2581 -18.2570 -18.2555 -18.2554 -18.2482
   -18.2473 -18.2457 -18.2452 -18.2376 -18.2342 -18.2334 -18.2303 -18.2236
   -18.2140 -18.2072 -18.2065 -18.2018 -18.1911 -18.1883 -18.1866 -18.1805
   -18.1758 -18.1681 -18.1636 -18.1632 -18.1507 -18.1455 -18.1391 -18.1275
    -9.3911  -9.3369  -9.2945  -9.2222  -9.1631  -9.1240  -9.0935  -9.0595
    -9.0103  -8.9762  -8.9360  -8.9231  -8.8673  -8.8479  -8.8199  -8.7989
    -8.7490  -8.7145  -8.6931  -8.6599  -8.6326  -8.5869  -8.5184  -8.5105
    -5.2572  -5.2452  -5.2415  -5.2353  -5.2322  -5.2197  -5.1952  -5.1738
    -5.1695  -5.1592  -5.1547  -5.1438  -5.1178  -5.1100  -5.1087  -5.1062
    -5.1000  -5.0956  -5.0880  -5.0841  -5.0780  -5.0070  -4.9978  -4.9869
    -4.1915  -3.9817  -3.9411  -3.7303  -3.6621  -3.4356  -3.4083  -3.1490
    -0.7001  -0.6034  -0.5303  -0.4801  -0.3275  -0.2199  -0.1997  -0.0955
    -0.0812   0.0070   0.0671   0.1297   0.3239   0.4312   0.4647   0.5171
     0.5204   0.5597   0.5873   0.6289   0.6494   0.6696   0.7136   0.7273
     0.7883   0.8637   0.9185   0.9458   0.9976   1.0346   1.0760   1.1043
     1.1317   1.1993   1.2096   1.2487   1.2719   1.2880   1.3255   1.3415
     1.3879   1.4084   1.4627   1.4838   1.5069   1.5416   1.5699   1.5983
     1.6196   1.6474   1.6758   1.7009   1.7350   1.7587   1.7710   1.7945
     1.8224   1.8513   1.8694   1.8849   1.9075   1.9687   2.0011   2.0300
     2.0709   2.0792   2.1503   2.2255   2.2466   2.4204   2.4800   2.6023

          k = 0.3750 0.3750 0.3750 (132612 PWs)   bands (ev):

   -18.4892 -18.4592 -18.3924 -18.3813 -18.3498 -18.3466 -18.3397 -18.3333
   -18.3301 -18.3268 -18.3224 -18.3153 -18.3151 -18.3090 -18.2991 -18.2956
   -18.2865 -18.2683 -18.2617 -18.2581 -18.2570 -18.2555 -18.2554 -18.2482
   -18.2473 -18.2457 -18.2452 -18.2376 -18.2342 -18.2334 -18.2303 -18.2236
   -18.2140 -18.2072 -18.2065 -18.2018 -18.1911 -18.1883 -18.1866 -18.1805
   -18.1758 -18.1681 -18.1636 -18.1632 -18.1507 -18.1455 -18.1391 -18.1275
    -9.3798  -9.3287  -9.2875  -9.2377  -9.1654  -9.1436  -9.1189  -9.0687
    -8.9917  -8.9698  -8.9308  -8.9156  -8.8634  -8.8470  -8.8137  -8.7935
    -8.7472  -8.7187  -8.6931  -8.6663  -8.6264  -8.5818  -8.5273  -8.5125
    -5.2573  -5.2452  -5.2414  -5.2354  -5.2322  -5.2198  -5.1955  -5.1736
    -5.1696  -5.1592  -5.1549  -5.1438  -5.1180  -5.1104  -5.1086  -5.1059
    -5.0991  -5.0962  -5.0872  -5.0836  -5.0783  -5.0069  -4.9979  -4.9867
    -4.0713  -3.9093  -3.8240  -3.7945  -3.6545  -3.5887  -3.5347  -3.3361
    -0.4471  -0.3622  -0.3147  -0.2567  -0.2123  -0.1874  -0.1186  -0.0683
    -0.0480   0.0142   0.0921   0.2238   0.2802   0.3492   0.3818   0.4103
     0.4569   0.4821   0.5523   0.5850   0.5956   0.6146   0.6567   0.6998
     0.8452   0.8924   0.9160   0.9316   0.9562   0.9739   1.0363   1.0746
     1.0894   1.1317   1.1521   1.1868   1.1919   1.2362   1.2526   1.3014
     1.3701   1.4020   1.4447   1.4822   1.5200   1.5565   1.5986   1.6075
     1.6385   1.6566   1.6823   1.7168   1.7590   1.7874   1.8058   1.8340
     1.8405   1.8598   1.8875   1.9008   1.9241   1.9580   1.9980   2.0078
     2.0324   2.0545   2.0786   2.0964   2.1350   2.1862   2.2352   2.3810

          k =-0.1250-0.1250 0.1250 (132670 PWs)   bands (ev):

   -18.4892 -18.4592 -18.3924 -18.3813 -18.3498 -18.3467 -18.3397 -18.3334
   -18.3301 -18.3268 -18.3224 -18.3153 -18.3151 -18.3090 -18.2991 -18.2956
   -18.2865 -18.2683 -18.2617 -18.2581 -18.2570 -18.2555 -18.2554 -18.2482
   -18.2473 -18.2457 -18.2452 -18.2376 -18.2342 -18.2334 -18.2303 -18.2236
   -18.2140 -18.2072 -18.2065 -18.2018 -18.1911 -18.1883 -18.1866 -18.1805
   -18.1758 -18.1681 -18.1636 -18.1632 -18.1507 -18.1455 -18.1391 -18.1275
    -9.4324  -9.2999  -9.2888  -9.2344  -9.1346  -9.1161  -9.0892  -9.0573
    -9.0124  -8.9786  -8.9361  -8.9060  -8.8733  -8.8599  -8.8307  -8.8038
    -8.7714  -8.7242  -8.6998  -8.6556  -8.6301  -8.5774  -8.5121  -8.5051
    -5.2572  -5.2463  -5.2410  -5.2358  -5.2323  -5.2193  -5.1947  -5.1731
    -5.1686  -5.1597  -5.1549  -5.1454  -5.1185  -5.1100  -5.1094  -5.1063
    -5.0991  -5.0944  -5.0882  -5.0830  -5.0789  -5.0068  -4.9979  -4.9866
    -4.4387  -3.9645  -3.9152  -3.8682  -3.4011  -3.3843  -3.3126  -2.7454
    -0.8155  -0.7087  -0.6285  -0.5886  -0.5588  -0.5056  -0.4978  -0.4527
    -0.3777  -0.3434  -0.2835  -0.2263   0.4209   0.4470   0.4932   0.6209
     0.6674   0.6915   0.7093   0.7591   0.8075   0.8945   0.9116   0.9367
     0.9979   1.0196   1.0489   1.0823   1.1137   1.1347   1.1588   1.1816
     1.2064   1.2584   1.2761   1.2931   1.3077   1.3236   1.3483   1.3599
     1.3860   1.4191   1.4351   1.4663   1.4930   1.5185   1.5482   1.5771
     1.5872   1.6198   1.6559   1.6697   1.6872   1.7059   1.7274   1.7587
     1.7934   1.8222   1.8589   1.9469   1.9972   2.0342   2.0891   2.1441
     2.1511   2.1792   2.2868   2.3368   2.6141   2.6950   2.7852   3.1113

          k =-0.1250 0.1250-0.1250 (132670 PWs)   bands (ev):

   -18.4892 -18.4592 -18.3924 -18.3813 -18.3498 -18.3467 -18.3397 -18.3334
   -18.3301 -18.3268 -18.3224 -18.3153 -18.3151 -18.3090 -18.2991 -18.2956
   -18.2865 -18.2683 -18.2617 -18.2581 -18.2570 -18.2555 -18.2554 -18.2482
   -18.2473 -18.2457 -18.2452 -18.2376 -18.2342 -18.2334 -18.2303 -18.2236
   -18.2140 -18.2072 -18.2065 -18.2018 -18.1911 -18.1883 -18.1866 -18.1805
   -18.1758 -18.1681 -18.1636 -18.1632 -18.1507 -18.1455 -18.1391 -18.1275
    -9.4328  -9.2987  -9.2850  -9.2415  -9.1327  -9.1112  -9.0904  -9.0608
    -9.0140  -8.9774  -8.9320  -8.9087  -8.8727  -8.8628  -8.8318  -8.7979
    -8.7768  -8.7162  -8.7044  -8.6587  -8.6276  -8.5778  -8.5131  -8.5043
    -5.2572  -5.2463  -5.2410  -5.2360  -5.2322  -5.2194  -5.1946  -5.1729
    -5.1686  -5.1599  -5.1549  -5.1455  -5.1183  -5.1100  -5.1092  -5.1061
    -5.0993  -5.0949  -5.0878  -5.0830  -5.0790  -5.0068  -4.9979  -4.9866
    -4.4397  -3.9445  -3.9307  -3.8735  -3.3939  -3.3704  -3.3332  -2.7449
    -0.8123  -0.6894  -0.6171  -0.5911  -0.5656  -0.5399  -0.4858  -0.4568
    -0.3706  -0.3496  -0.2903  -0.2247   0.4217   0.4477   0.4946   0.6043
     0.6811   0.6952   0.7172   0.7696   0.8102   0.8643   0.9038   0.9499
     0.9957   1.0203   1.0479   1.0902   1.1189   1.1345   1.1552   1.1795
     1.2118   1.2273   1.2564   1.2878   1.3179   1.3431   1.3688   1.3875
     1.3912   1.4316   1.4523   1.4593   1.4773   1.5100   1.5401   1.5752
     1.5991   1.6240   1.6467   1.6762   1.6863   1.6999   1.7289   1.7495
     1.7850   1.8073   1.8579   1.9441   1.9955   2.0460   2.0856   2.1395
     2.1574   2.1923   2.2722   2.3394   2.6003   2.7053   2.7802   3.1192

          k = 0.1250-0.1250-0.1250 (132670 PWs)   bands (ev):

   -18.4892 -18.4592 -18.3924 -18.3813 -18.3498 -18.3467 -18.3397 -18.3334
   -18.3301 -18.3268 -18.3224 -18.3153 -18.3151 -18.3090 -18.2991 -18.2956
   -18.2865 -18.2683 -18.2617 -18.2581 -18.2570 -18.2555 -18.2554 -18.2482
   -18.2473 -18.2457 -18.2452 -18.2376 -18.2342 -18.2334 -18.2303 -18.2236
   -18.2140 -18.2072 -18.2065 -18.2018 -18.1911 -18.1883 -18.1866 -18.1805
   -18.1758 -18.1681 -18.1636 -18.1632 -18.1507 -18.1455 -18.1391 -18.1275
    -9.4329  -9.2934  -9.2903  -9.2420  -9.1287  -9.1179  -9.0895  -9.0568
    -9.0135  -8.9793  -8.9344  -8.9058  -8.8739  -8.8634  -8.8320  -8.7990
    -8.7720  -8.7228  -8.7007  -8.6569  -8.6294  -8.5777  -8.5122  -8.5048
    -5.2572  -5.2461  -5.2411  -5.2360  -5.2322  -5.2194  -5.1946  -5.1730
    -5.1685  -5.1598  -5.1548  -5.1456  -5.1185  -5.1100  -5.1093  -5.1062
    -5.0992  -5.0945  -5.0881  -5.0830  -5.0790  -5.0067  -4.9979  -4.9866
    -4.4394  -3.9557  -3.9248  -3.8670  -3.4009  -3.3761  -3.3206  -2.7466
    -0.8108  -0.6748  -0.6235  -0.5981  -0.5726  -0.5323  -0.4785  -0.4500
    -0.3907  -0.3380  -0.3037  -0.2262   0.4209   0.4512   0.4967   0.6073
     0.6861   0.6948   0.7202   0.7694   0.8093   0.8753   0.8998   0.9337
     0.9875   1.0228   1.0440   1.0909   1.1218   1.1316   1.1571   1.1777
     1.2006   1.2431   1.2716   1.2916   1.3186   1.3537   1.3645   1.3742
     1.3995   1.4259   1.4401   1.4632   1.4952   1.5183   1.5455   1.5653
     1.5915   1.6173   1.6453   1.6675   1.6871   1.7068   1.7215   1.7588
     1.7716   1.8140   1.8433   1.9467   2.0008   2.0489   2.0763   2.1365
     2.1681   2.1887   2.2606   2.3494   2.6217   2.6963   2.7814   3.1140

          k =-0.1250-0.1250 0.3750 (132608 PWs)   bands (ev):

   -18.4892 -18.4592 -18.3924 -18.3813 -18.3498 -18.3467 -18.3397 -18.3334
   -18.3301 -18.3268 -18.3224 -18.3153 -18.3151 -18.3090 -18.2991 -18.2956
   -18.2865 -18.2683 -18.2617 -18.2581 -18.2570 -18.2555 -18.2554 -18.2482
   -18.2473 -18.2457 -18.2452 -18.2376 -18.2342 -18.2334 -18.2303 -18.2236
   -18.2140 -18.2072 -18.2065 -18.2018 -18.1911 -18.1883 -18.1866 -18.1805
   -18.1758 -18.1681 -18.1636 -18.1632 -18.1507 -18.1455 -18.1391 -18.1275
    -9.4198  -9.3122  -9.2837  -9.2313  -9.1473  -9.1209  -9.0857  -9.0739
    -9.0119  -8.9693  -8.9384  -8.9181  -8.8771  -8.8517  -8.8164  -8.8025
    -8.7581  -8.7143  -8.6954  -8.6598  -8.6361  -8.5843  -8.5112  -8.5099
    -5.2571  -5.2460  -5.2408  -5.2358  -5.2320  -5.2193  -5.1951  -5.1737
    -5.1693  -5.1593  -5.1549  -5.1439  -5.1183  -5.1104  -5.1091  -5.1057
    -5.0991  -5.0953  -5.0886  -5.0832  -5.0790  -5.0068  -4.9979  -4.9868
    -4.3148  -4.0892  -3.8167  -3.7614  -3.5754  -3.5158  -3.2386  -2.9587
    -0.8081  -0.6568  -0.5951  -0.5582  -0.5236  -0.4435  -0.3976  -0.3284
    -0.0869  -0.0602  -0.0342   0.0647   0.4007   0.4407   0.4801   0.5094
     0.5809   0.6020   0.6579   0.6793   0.7138   0.7430   0.7697   0.7937
     0.8936   0.9119   0.9455   0.9911   1.0550   1.0989   1.1187   1.1726
     1.2036   1.2226   1.2513   1.2748   1.3123   1.3519   1.3594   1.3845
     1.4154   1.4239   1.4642   1.4929   1.5049   1.5254   1.5512   1.5940
     1.6109   1.6382   1.6503   1.6770   1.6970   1.7212   1.7412   1.7673
     1.8084   1.8324   1.8551   1.9105   1.9480   1.9785   2.0251   2.0459
     2.0986   2.1779   2.2216   2.3331   2.4144   2.4941   2.6857   2.8517

          k =-0.1250 0.1250-0.3750 (132608 PWs)   bands (ev):

   -18.4892 -18.4592 -18.3924 -18.3813 -18.3498 -18.3467 -18.3397 -18.3333
   -18.3301 -18.3268 -18.3224 -18.3153 -18.3151 -18.3090 -18.2991 -18.2956
   -18.2865 -18.2683 -18.2617 -18.2581 -18.2570 -18.2555 -18.2554 -18.2482
   -18.2473 -18.2457 -18.2452 -18.2376 -18.2342 -18.2334 -18.2303 -18.2236
   -18.2140 -18.2072 -18.2065 -18.2018 -18.1911 -18.1883 -18.1866 -18.1805
   -18.1758 -18.1681 -18.1636 -18.1632 -18.1507 -18.1455 -18.1391 -18.1275
    -9.4204  -9.3110  -9.2798  -9.2380  -9.1445  -9.1221  -9.0816  -9.0771
    -9.0128  -8.9675  -8.9392  -8.9164  -8.8800  -8.8548  -8.8147  -8.7994
    -8.7601  -8.7095  -8.6968  -8.6651  -8.6326  -8.5847  -8.5134  -8.5080
    -5.2571  -5.2460  -5.2409  -5.2359  -5.2320  -5.2194  -5.1951  -5.1736
    -5.1692  -5.1594  -5.1549  -5.1440  -5.1181  -5.1104  -5.1089  -5.1055
    -5.0994  -5.0958  -5.0882  -5.0832  -5.0791  -5.0068  -4.9979  -4.9868
    -4.3167  -4.0850  -3.8168  -3.7677  -3.5673  -3.5150  -3.2464  -2.9560
    -0.8041  -0.6386  -0.5955  -0.5687  -0.5147  -0.4517  -0.4153  -0.3307
    -0.0931  -0.0483  -0.0318   0.0636   0.3935   0.4382   0.4656   0.5348
     0.5638   0.6219   0.6482   0.6799   0.7224   0.7278   0.7598   0.8137
     0.8897   0.9223   0.9559   0.9933   1.0483   1.0846   1.1282   1.1564
     1.1851   1.2284   1.2395   1.2605   1.3257   1.3578   1.3744   1.4078
     1.4362   1.4513   1.4719   1.4870   1.5036   1.5133   1.5504   1.5912
     1.6084   1.6259   1.6449   1.6752   1.6900   1.7207   1.7414   1.7771
     1.7985   1.8302   1.8574   1.8962   1.9434   1.9792   2.0302   2.0497
     2.1015   2.1759   2.2328   2.3184   2.3886   2.5240   2.6608   2.8720

          k = 0.1250-0.1250-0.3750 (132608 PWs)   bands (ev):

   -18.4892 -18.4592 -18.3924 -18.3813 -18.3498 -18.3467 -18.3397 -18.3334
   -18.3301 -18.3268 -18.3224 -18.3153 -18.3151 -18.3090 -18.2991 -18.2956
   -18.2865 -18.2683 -18.2617 -18.2581 -18.2570 -18.2555 -18.2554 -18.2482
   -18.2473 -18.2457 -18.2452 -18.2376 -18.2342 -18.2334 -18.2303 -18.2236
   -18.2140 -18.2072 -18.2065 -18.2018 -18.1911 -18.1883 -18.1866 -18.1805
   -18.1758 -18.1681 -18.1636 -18.1632 -18.1507 -18.1455 -18.1391 -18.1275
    -9.4205  -9.3091  -9.2817  -9.2385  -9.1413  -9.1263  -9.0859  -9.0699
    -9.0123  -8.9694  -8.9401  -8.9150  -8.8799  -8.8563  -8.8149  -8.7988
    -8.7558  -8.7174  -8.6943  -8.6602  -8.6361  -8.5846  -8.5110  -8.5100
    -5.2572  -5.2459  -5.2409  -5.2359  -5.2319  -5.2194  -5.1951  -5.1736
    -5.1692  -5.1594  -5.1549  -5.1441  -5.1182  -5.1104  -5.1091  -5.1057
    -5.0992  -5.0953  -5.0884  -5.0832  -5.0791  -5.0068  -4.9979  -4.9868
    -4.3158  -4.0883  -3.8146  -3.7636  -3.5703  -3.5193  -3.2400  -2.9595
    -0.8037  -0.6335  -0.5950  -0.5688  -0.5181  -0.4511  -0.3956  -0.3466
    -0.0797  -0.0714  -0.0419   0.0542   0.4119   0.4522   0.4712   0.5218
     0.5849   0.6044   0.6534   0.6901   0.7100   0.7338   0.7668   0.8062
     0.8805   0.9207   0.9477   0.9911   1.0453   1.0948   1.1296   1.1633
     1.1683   1.2183   1.2389   1.2753   1.3240   1.3683   1.3824   1.4076
     1.4369   1.4460   1.4750   1.5030   1.5078   1.5217   1.5394   1.5804
     1.5985   1.6243   1.6487   1.6647   1.6925   1.7279   1.7490   1.7646
     1.7901   1.8303   1.8496   1.8995   1.9454   1.9801   2.0196   2.0549
     2.1041   2.1819   2.1963   2.3464   2.4285   2.4931   2.6715   2.8637

          k = 0.3750-0.1250 0.1250 (132608 PWs)   bands (ev):

   -18.4892 -18.4592 -18.3924 -18.3813 -18.3498 -18.3467 -18.3397 -18.3334
   -18.3301 -18.3268 -18.3224 -18.3153 -18.3151 -18.3090 -18.2991 -18.2956
   -18.2865 -18.2683 -18.2617 -18.2581 -18.2570 -18.2555 -18.2554 -18.2482
   -18.2473 -18.2457 -18.2452 -18.2376 -18.2342 -18.2334 -18.2303 -18.2236
   -18.2140 -18.2072 -18.2065 -18.2018 -18.1911 -18.1883 -18.1866 -18.1805
   -18.1758 -18.1681 -18.1636 -18.1632 -18.1507 -18.1455 -18.1391 -18.1275
    -9.4183  -9.3034  -9.2823  -9.2461  -9.1393  -9.1375  -9.1018  -9.0594
    -9.0021  -8.9750  -8.9263  -8.9057  -8.8682  -8.8575  -8.8278  -8.7916
    -8.7740  -8.7287  -8.6977  -8.6604  -8.6202  -8.5739  -8.5245  -8.5075
    -5.2570  -5.2460  -5.2408  -5.2360  -5.2320  -5.2193  -5.1948  -5.1729
    -5.1688  -5.1600  -5.1548  -5.1453  -5.1178  -5.1105  -5.1092  -5.1054
    -5.0994  -5.0959  -5.0882  -5.0826  -5.0791  -5.0069  -4.9982  -4.9867
    -4.3132  -4.1014  -3.7989  -3.7627  -3.5674  -3.5501  -3.2097  -2.9652
    -0.7335  -0.6254  -0.5806  -0.5526  -0.5134  -0.4464  -0.4196  -0.3666
    -0.1704  -0.0920  -0.0360   0.0781   0.3803   0.4449   0.4694   0.5019
     0.5502   0.5859   0.6197   0.6646   0.6825   0.7535   0.7881   0.8386
     0.8862   0.9135   0.9922   1.0617   1.0753   1.0906   1.1403   1.1551
     1.1772   1.2180   1.2415   1.2720   1.2978   1.3288   1.3414   1.3466
     1.3802   1.4384   1.4460   1.4884   1.5066   1.5611   1.5819   1.6020
     1.6239   1.6367   1.6568   1.6863   1.7014   1.7166   1.7433   1.7814
     1.7985   1.8536   1.8711   1.9118   1.9399   2.0162   2.0469   2.0874
     2.1095   2.1468   2.2592   2.2754   2.3963   2.4478   2.7673   2.8906

          k =-0.3750-0.1250-0.1250 (132608 PWs)   bands (ev):

   -18.4892 -18.4592 -18.3924 -18.3813 -18.3498 -18.3467 -18.3397 -18.3334
   -18.3301 -18.3268 -18.3224 -18.3153 -18.3151 -18.3090 -18.2991 -18.2956
   -18.2865 -18.2683 -18.2617 -18.2581 -18.2570 -18.2555 -18.2554 -18.2482
   -18.2473 -18.2457 -18.2452 -18.2376 -18.2342 -18.2334 -18.2303 -18.2236
   -18.2140 -18.2072 -18.2065 -18.2018 -18.1911 -18.1883 -18.1866 -18.1805
   -18.1758 -18.1681 -18.1636 -18.1632 -18.1507 -18.1455 -18.1391 -18.1275
    -9.4183  -9.3056  -9.2805  -9.2434  -9.1473  -9.1355  -9.1015  -9.0540
    -8.9998  -8.9800  -8.9270  -8.9057  -8.8680  -8.8558  -8.8241  -8.7999
    -8.7631  -8.7379  -8.6964  -8.6599  -8.6200  -8.5733  -8.5246  -8.5076
    -5.2570  -5.2460  -5.2408  -5.2358  -5.2320  -5.2193  -5.1948  -5.1729
    -5.1688  -5.1600  -5.1549  -5.1453  -5.1178  -5.1105  -5.1092  -5.1057
    -5.0994  -5.0957  -5.0882  -5.0826  -5.0790  -5.0070  -4.9982  -4.9866
    -4.3117  -4.1041  -3.7901  -3.7679  -3.5729  -3.5493  -3.2077  -2.9642
    -0.7217  -0.6310  -0.6151  -0.5499  -0.5043  -0.4500  -0.4148  -0.3639
    -0.1699  -0.0729  -0.0259   0.0769   0.3825   0.4198   0.4732   0.4917
     0.5486   0.5893   0.6285   0.6529   0.7061   0.7434   0.7843   0.8373
     0.8804   0.9301   1.0005   1.0480   1.0571   1.0970   1.1445   1.1585
     1.1943   1.2094   1.2498   1.2669   1.3028   1.3207   1.3453   1.3614
     1.3869   1.4159   1.4548   1.4822   1.5073   1.5573   1.5707   1.5911
     1.6159   1.6483   1.6623   1.6851   1.7030   1.7121   1.7358   1.7892
     1.8146   1.8403   1.8831   1.9078   1.9346   2.0015   2.0635   2.0952
     2.1046   2.1406   2.2458   2.2790   2.3932   2.4612   2.7709   2.8959

          k = 0.3750 0.1250-0.1250 (132608 PWs)   bands (ev):

   -18.4892 -18.4592 -18.3924 -18.3813 -18.3498 -18.3467 -18.3397 -18.3334
   -18.3301 -18.3268 -18.3224 -18.3153 -18.3151 -18.3090 -18.2991 -18.2956
   -18.2865 -18.2683 -18.2617 -18.2581 -18.2570 -18.2555 -18.2554 -18.2482
   -18.2473 -18.2457 -18.2452 -18.2376 -18.2342 -18.2334 -18.2303 -18.2236
   -18.2140 -18.2072 -18.2065 -18.2018 -18.1911 -18.1883 -18.1866 -18.1805
   -18.1758 -18.1681 -18.1636 -18.1632 -18.1507 -18.1455 -18.1391 -18.1275
    -9.4176  -9.3077  -9.2830  -9.2389  -9.1478  -9.1323  -9.1041  -9.0561
    -8.9999  -8.9760  -8.9322  -8.9016  -8.8712  -8.8527  -8.8261  -8.7985
    -8.7672  -8.7350  -8.6961  -8.6578  -8.6223  -8.5734  -8.5238  -8.5080
    -5.2570  -5.2460  -5.2408  -5.2359  -5.2320  -5.2192  -5.1949  -5.1730
    -5.1688  -5.1598  -5.1549  -5.1452  -5.1180  -5.1105  -5.1094  -5.1058
    -5.0991  -5.0954  -5.0885  -5.0826  -5.0790  -5.0069  -4.9982  -4.9867
    -4.3101  -4.1081  -3.7937  -3.7585  -3.5757  -3.5521  -3.2022  -2.9678
    -0.7311  -0.6439  -0.5890  -0.5480  -0.5176  -0.4412  -0.4056  -0.3704
    -0.1688  -0.0702  -0.0274   0.0727   0.3882   0.4197   0.4779   0.4891
     0.5455   0.5754   0.6397   0.6484   0.7159   0.7229   0.7929   0.8340
     0.8914   0.9213   1.0037   1.0548   1.0700   1.1060   1.1290   1.1669
     1.1808   1.2029   1.2477   1.2648   1.2933   1.3168   1.3327   1.3542
     1.3793   1.4237   1.4555   1.4825   1.5010   1.5624   1.5781   1.6095
     1.6263   1.6413   1.6617   1.6815   1.7078   1.7142   1.7440   1.7764
     1.8020   1.8566   1.8878   1.9257   1.9441   2.0028   2.0581   2.0781
     2.1040   2.1378   2.2496   2.2878   2.3951   2.4575   2.7642   2.8880

          k =-0.3750 0.1250 0.1250 (132608 PWs)   bands (ev):

   -18.4892 -18.4592 -18.3924 -18.3813 -18.3498 -18.3467 -18.3397 -18.3334
   -18.3301 -18.3268 -18.3224 -18.3153 -18.3151 -18.3090 -18.2991 -18.2956
   -18.2865 -18.2683 -18.2617 -18.2581 -18.2570 -18.2555 -18.2554 -18.2482
   -18.2473 -18.2457 -18.2452 -18.2376 -18.2342 -18.2334 -18.2303 -18.2236
   -18.2140 -18.2072 -18.2065 -18.2018 -18.1911 -18.1883 -18.1866 -18.1805
   -18.1758 -18.1681 -18.1636 -18.1632 -18.1507 -18.1455 -18.1391 -18.1275
    -9.4183  -9.3038  -9.2817  -9.2455  -9.1449  -9.1341  -9.1033  -9.0532
    -9.0016  -8.9803  -8.9282  -8.8992  -8.8734  -8.8548  -8.8286  -8.7933
    -8.7687  -8.7342  -8.6960  -8.6587  -8.6219  -8.5740  -8.5238  -8.5078
    -5.2570  -5.2459  -5.2408  -5.2360  -5.2319  -5.2193  -5.1949  -5.1729
    -5.1688  -5.1599  -5.1548  -5.1455  -5.1179  -5.1105  -5.1094  -5.1056
    -5.0991  -5.0955  -5.0885  -5.0826  -5.0791  -5.0069  -4.9982  -4.9867
    -4.3120  -4.1057  -3.7932  -3.7598  -3.5689  -3.5570  -3.2036  -2.9688
    -0.7222  -0.6257  -0.5956  -0.5487  -0.5112  -0.4487  -0.4052  -0.3819
    -0.1692  -0.0832  -0.0486   0.0735   0.3863   0.4417   0.4707   0.5087
     0.5456   0.5951   0.6184   0.6572   0.6983   0.7324   0.7936   0.8402
     0.8788   0.9212   1.0152   1.0413   1.0712   1.0903   1.1231   1.1539
     1.1903   1.2143   1.2514   1.2639   1.3010   1.3223   1.3541   1.3689
     1.3872   1.4415   1.4516   1.4862   1.5101   1.5499   1.5700   1.5930
     1.6232   1.6393   1.6615   1.6810   1.6933   1.7221   1.7383   1.7602
     1.7828   1.8603   1.8932   1.9258   1.9357   1.9885   2.0688   2.0804
     2.1087   2.1453   2.2603   2.2804   2.3964   2.4580   2.7656   2.8892

          k =-0.1250 0.3750 0.1250 (132608 PWs)   bands (ev):

   -18.4892 -18.4592 -18.3924 -18.3813 -18.3498 -18.3466 -18.3397 -18.3334
   -18.3301 -18.3268 -18.3224 -18.3153 -18.3151 -18.3090 -18.2991 -18.2956
   -18.2865 -18.2683 -18.2617 -18.2581 -18.2570 -18.2555 -18.2554 -18.2482
   -18.2473 -18.2457 -18.2452 -18.2376 -18.2342 -18.2334 -18.2303 -18.2236
   -18.2140 -18.2072 -18.2065 -18.2018 -18.1911 -18.1883 -18.1866 -18.1805
   -18.1758 -18.1681 -18.1636 -18.1632 -18.1507 -18.1455 -18.1391 -18.1275
    -9.4037  -9.3447  -9.2800  -9.2231  -9.1471  -9.1272  -9.0919  -9.0465
    -9.0121  -8.9811  -8.9366  -8.9037  -8.8694  -8.8607  -8.8284  -8.8085
    -8.7623  -8.7160  -8.6905  -8.6590  -8.6289  -8.5829  -8.5191  -8.5060
    -5.2572  -5.2450  -5.2415  -5.2356  -5.2323  -5.2196  -5.1947  -5.1730
    -5.1684  -5.1598  -5.1546  -5.1451  -5.1185  -5.1098  -5.1091  -5.1070
    -5.0998  -5.0945  -5.0882  -5.0839  -5.0781  -5.0068  -4.9980  -4.9868
    -4.3135  -4.0845  -3.8320  -3.7585  -3.5725  -3.5130  -3.2448  -2.9557
    -0.7042  -0.6534  -0.5969  -0.5858  -0.5024  -0.4577  -0.4089  -0.3238
    -0.1749  -0.0896  -0.0190   0.0384   0.3807   0.4662   0.4999   0.5280
     0.5576   0.6015   0.6546   0.6759   0.6973   0.7361   0.7864   0.8040
     0.8814   0.9182   0.9633   1.0264   1.0602   1.0931   1.1138   1.1538
     1.1848   1.2151   1.2410   1.2987   1.3067   1.3413   1.3682   1.4070
     1.4185   1.4295   1.4710   1.4844   1.5078   1.5320   1.5528   1.5785
     1.6119   1.6340   1.6418   1.6777   1.6795   1.7227   1.7554   1.7892
     1.8089   1.8275   1.8495   1.8779   1.9448   1.9736   2.0573   2.0882
     2.1329   2.1566   2.2104   2.2772   2.3867   2.5361   2.7002   2.8725

          k =-0.1250-0.3750-0.1250 (132608 PWs)   bands (ev):

   -18.4892 -18.4592 -18.3924 -18.3813 -18.3498 -18.3466 -18.3397 -18.3334
   -18.3301 -18.3268 -18.3224 -18.3153 -18.3151 -18.3090 -18.2991 -18.2956
   -18.2865 -18.2683 -18.2617 -18.2581 -18.2570 -18.2555 -18.2554 -18.2482
   -18.2473 -18.2457 -18.2452 -18.2376 -18.2342 -18.2334 -18.2303 -18.2236
   -18.2140 -18.2072 -18.2065 -18.2018 -18.1911 -18.1883 -18.1866 -18.1805
   -18.1758 -18.1681 -18.1636 -18.1632 -18.1507 -18.1455 -18.1391 -18.1275
    -9.4031  -9.3465  -9.2798  -9.2186  -9.1501  -9.1304  -9.0908  -9.0471
    -9.0098  -8.9803  -8.9347  -8.9105  -8.8666  -8.8588  -8.8275  -8.8091
    -8.7616  -8.7175  -8.6926  -8.6589  -8.6274  -8.5824  -8.5193  -8.5061
    -5.2572  -5.2450  -5.2415  -5.2355  -5.2324  -5.2196  -5.1947  -5.1731
    -5.1685  -5.1598  -5.1547  -5.1449  -5.1183  -5.1099  -5.1090  -5.1070
    -5.1000  -5.0947  -5.0879  -5.0839  -5.0780  -5.0070  -4.9980  -4.9867
    -4.3121  -4.0872  -3.8218  -3.7669  -3.5504  -3.5407  -3.2409  -2.9532
    -0.7198  -0.6369  -0.6138  -0.5951  -0.5003  -0.4515  -0.3984  -0.3207
    -0.1836  -0.0717  -0.0136   0.0452   0.3661   0.4639   0.5130   0.5337
     0.5665   0.5833   0.6450   0.6722   0.6941   0.7248   0.7685   0.7985
     0.8882   0.9320   0.9981   1.0303   1.0548   1.0837   1.1344   1.1623
     1.1721   1.2001   1.2433   1.2936   1.3240   1.3521   1.3689   1.3814
     1.4046   1.4421   1.4648   1.4822   1.4872   1.5197   1.5549   1.5750
     1.6111   1.6266   1.6470   1.6980   1.7133   1.7280   1.7636   1.7692
     1.8004   1.8260   1.8725   1.8861   1.9264   1.9685   2.0555   2.0869
     2.1273   2.1439   2.2333   2.2653   2.3970   2.5058   2.7168   2.8866

          k = 0.1250 0.3750-0.1250 (132608 PWs)   bands (ev):

   -18.4892 -18.4592 -18.3924 -18.3813 -18.3498 -18.3466 -18.3397 -18.3333
   -18.3301 -18.3268 -18.3224 -18.3153 -18.3151 -18.3090 -18.2991 -18.2956
   -18.2865 -18.2683 -18.2617 -18.2581 -18.2570 -18.2555 -18.2554 -18.2482
   -18.2473 -18.2457 -18.2452 -18.2376 -18.2342 -18.2334 -18.2303 -18.2236
   -18.2140 -18.2072 -18.2065 -18.2018 -18.1911 -18.1883 -18.1866 -18.1805
   -18.1758 -18.1681 -18.1636 -18.1632 -18.1507 -18.1455 -18.1391 -18.1275
    -9.4020  -9.3483  -9.2806  -9.2162  -9.1524  -9.1277  -9.0912  -9.0477
    -9.0089  -8.9821  -8.9379  -8.9040  -8.8698  -8.8560  -8.8267  -8.8138
    -8.7612  -8.7186  -8.6897  -8.6573  -8.6296  -8.5825  -8.5190  -8.5063
    -5.2572  -5.2451  -5.2414  -5.2354  -5.2324  -5.2194  -5.1948  -5.1731
    -5.1685  -5.1597  -5.1547  -5.1449  -5.1185  -5.1099  -5.1091  -5.1071
    -5.0997  -5.0944  -5.0883  -5.0839  -5.0780  -5.0069  -4.9980  -4.9868
    -4.3115  -4.0880  -3.8329  -3.7540  -3.5693  -3.5215  -3.2416  -2.9547
    -0.7130  -0.6558  -0.6151  -0.5782  -0.5041  -0.4546  -0.4012  -0.3295
    -0.1674  -0.0529  -0.0168   0.0447   0.3584   0.4441   0.5139   0.5285
     0.5620   0.5960   0.6559   0.6724   0.6771   0.7404   0.7675   0.8033
     0.8939   0.9296   0.9787   1.0430   1.0551   1.0954   1.1182   1.1397
     1.1676   1.2297   1.2465   1.2955   1.3166   1.3426   1.3612   1.3833
     1.4002   1.4232   1.4496   1.4755   1.5053   1.5343   1.5721   1.5924
     1.6018   1.6278   1.6511   1.6906   1.7054   1.7217   1.7620   1.7728
     1.7996   1.8309   1.8601   1.9131   1.9540   1.9759   2.0416   2.0740
     2.1002   2.1509   2.2356   2.3044   2.3911   2.5017   2.7044   2.8750

          k = 0.1250-0.3750 0.1250 (132608 PWs)   bands (ev):

   -18.4892 -18.4592 -18.3924 -18.3813 -18.3498 -18.3466 -18.3397 -18.3333
   -18.3301 -18.3268 -18.3224 -18.3153 -18.3151 -18.3090 -18.2991 -18.2956
   -18.2865 -18.2683 -18.2617 -18.2581 -18.2570 -18.2555 -18.2554 -18.2482
   -18.2473 -18.2457 -18.2452 -18.2376 -18.2342 -18.2334 -18.2303 -18.2236
   -18.2140 -18.2072 -18.2065 -18.2018 -18.1911 -18.1883 -18.1866 -18.1805
   -18.1758 -18.1681 -18.1636 -18.1632 -18.1507 -18.1455 -18.1391 -18.1275
    -9.4029  -9.3470  -9.2790  -9.2205  -9.1511  -9.1232  -9.0934  -9.0503
    -9.0102  -8.9801  -8.9345  -8.9066  -8.8694  -8.8584  -8.8293  -8.8072
    -8.7668  -8.7097  -8.6934  -8.6604  -8.6280  -8.5828  -8.5194  -8.5059
    -5.2572  -5.2451  -5.2414  -5.2355  -5.2324  -5.2195  -5.1947  -5.1730
    -5.1685  -5.1599  -5.1546  -5.1450  -5.1184  -5.1099  -5.1090  -5.1068
    -5.0999  -5.0950  -5.0879  -5.0839  -5.0781  -5.0069  -4.9980  -4.9867
    -4.3134  -4.0857  -3.8240  -3.7657  -3.5522  -3.5359  -3.2432  -2.9539
    -0.7065  -0.6531  -0.6127  -0.5747  -0.5095  -0.4571  -0.3983  -0.3319
    -0.1639  -0.0739  -0.0183   0.0391   0.3744   0.4455   0.4922   0.5257
     0.5631   0.6045   0.6457   0.6732   0.6923   0.7471   0.7827   0.8171
     0.8765   0.9274   0.9716   1.0322   1.0582   1.0869   1.1206   1.1502
     1.1821   1.2085   1.2422   1.2908   1.3177   1.3475   1.3740   1.3947
     1.4160   1.4447   1.4545   1.4764   1.5035   1.5185   1.5550   1.5798
     1.6188   1.6329   1.6591   1.6700   1.6884   1.7347   1.7575   1.7817
     1.7925   1.8228   1.8527   1.8979   1.9659   1.9785   2.0350   2.0901
     2.1230   2.1476   2.2193   2.2929   2.3738   2.5125   2.7081   2.8836

          k =-0.1250-0.3750 0.3750 (132616 PWs)   bands (ev):

   -18.4892 -18.4592 -18.3924 -18.3813 -18.3498 -18.3466 -18.3397 -18.3333
   -18.3301 -18.3268 -18.3224 -18.3153 -18.3151 -18.3090 -18.2991 -18.2956
   -18.2865 -18.2683 -18.2617 -18.2581 -18.2570 -18.2555 -18.2554 -18.2482
   -18.2473 -18.2457 -18.2452 -18.2376 -18.2342 -18.2334 -18.2303 -18.2236
   -18.2140 -18.2072 -18.2065 -18.2018 -18.1911 -18.1883 -18.1866 -18.1805
   -18.1758 -18.1681 -18.1636 -18.1632 -18.1507 -18.1455 -18.1391 -18.1275
    -9.3895  -9.3405  -9.2937  -9.2205  -9.1643  -9.1220  -9.0937  -9.0607
    -9.0096  -8.9784  -8.9370  -8.9194  -8.8680  -8.8464  -8.8215  -8.8001
    -8.7494  -8.7161  -8.6905  -8.6556  -8.6367  -8.5870  -8.5178  -8.5110
    -5.2572  -5.2453  -5.2414  -5.2353  -5.2322  -5.2196  -5.1952  -5.1738
    -5.1695  -5.1592  -5.1547  -5.1437  -5.1180  -5.1099  -5.1088  -5.1063
    -5.0997  -5.0954  -5.0884  -5.0841  -5.0780  -5.0069  -4.9979  -4.9869
    -4.1891  -3.9911  -3.9387  -3.7222  -3.6650  -3.4458  -3.3951  -3.1528
    -0.6979  -0.6050  -0.5312  -0.4788  -0.3501  -0.2303  -0.1860  -0.0875
    -0.0508  -0.0024   0.0783   0.1582   0.2826   0.4071   0.4813   0.4913
     0.5241   0.5479   0.6022   0.6256   0.6519   0.6841   0.7028   0.7305
     0.8215   0.8333   0.9252   0.9466   1.0029   1.0321   1.0708   1.1077
     1.1464   1.1822   1.2108   1.2303   1.2673   1.2938   1.3182   1.3482
     1.3793   1.4113   1.4685   1.4886   1.5076   1.5464   1.5846   1.6022
     1.6209   1.6351   1.6509   1.7046   1.7409   1.7523   1.7691   1.7940
     1.8260   1.8481   1.8695   1.9179   1.9383   1.9672   1.9807   2.0228
     2.0328   2.1146   2.1708   2.2186   2.2550   2.3985   2.4901   2.5828

          k =-0.1250 0.3750-0.3750 (132616 PWs)   bands (ev):

   -18.4892 -18.4592 -18.3924 -18.3813 -18.3498 -18.3466 -18.3397 -18.3333
   -18.3301 -18.3268 -18.3224 -18.3153 -18.3151 -18.3090 -18.2991 -18.2956
   -18.2865 -18.2683 -18.2617 -18.2581 -18.2570 -18.2555 -18.2554 -18.2482
   -18.2473 -18.2457 -18.2452 -18.2376 -18.2342 -18.2334 -18.2303 -18.2236
   -18.2140 -18.2072 -18.2065 -18.2018 -18.1911 -18.1883 -18.1866 -18.1805
   -18.1758 -18.1681 -18.1636 -18.1632 -18.1507 -18.1455 -18.1391 -18.1275
    -9.3906  -9.3390  -9.2922  -9.2233  -9.1644  -9.1188  -9.0964  -9.0611
    -9.0095  -8.9765  -8.9378  -8.9177  -8.8717  -8.8496  -8.8185  -8.7968
    -8.7534  -8.7098  -8.6927  -8.6590  -8.6347  -8.5871  -8.5184  -8.5105
    -5.2571  -5.2453  -5.2414  -5.2354  -5.2321  -5.2196  -5.1952  -5.1737
    -5.1695  -5.1593  -5.1547  -5.1438  -5.1179  -5.1099  -5.1087  -5.1060
    -5.1000  -5.0958  -5.0880  -5.0841  -5.0780  -5.0069  -4.9979  -4.9869
    -4.1920  -3.9877  -3.9376  -3.7182  -3.6679  -3.4444  -3.4027  -3.1498
    -0.6905  -0.6037  -0.5303  -0.4768  -0.3556  -0.2350  -0.1909  -0.0767
    -0.0579  -0.0083   0.0931   0.1398   0.2875   0.3971   0.4550   0.4988
     0.5307   0.5502   0.6078   0.6392   0.6473   0.6756   0.7031   0.7368
     0.8279   0.8566   0.9277   0.9570   0.9965   1.0271   1.0490   1.0975
     1.1270   1.1859   1.2124   1.2385   1.2700   1.2821   1.3409   1.3744
     1.3939   1.4275   1.4534   1.4876   1.5206   1.5381   1.5561   1.5883
     1.6187   1.6591   1.6780   1.6903   1.7262   1.7422   1.7766   1.7943
     1.8284   1.8369   1.8742   1.9046   1.9390   1.9628   1.9803   2.0269
     2.0428   2.1159   2.1638   2.2120   2.2404   2.4003   2.4800   2.6091

          k = 0.1250-0.3750-0.3750 (132616 PWs)   bands (ev):

   -18.4892 -18.4592 -18.3924 -18.3813 -18.3498 -18.3466 -18.3397 -18.3333
   -18.3301 -18.3268 -18.3224 -18.3153 -18.3151 -18.3090 -18.2991 -18.2956
   -18.2865 -18.2683 -18.2617 -18.2581 -18.2570 -18.2555 -18.2554 -18.2482
   -18.2473 -18.2457 -18.2452 -18.2376 -18.2342 -18.2334 -18.2303 -18.2236
   -18.2140 -18.2072 -18.2065 -18.2018 -18.1911 -18.1883 -18.1866 -18.1805
   -18.1758 -18.1681 -18.1636 -18.1632 -18.1507 -18.1455 -18.1391 -18.1275
    -9.3918  -9.3348  -9.2949  -9.2260  -9.1608  -9.1226  -9.0944  -9.0578
    -9.0110  -8.9774  -8.9399  -8.9154  -8.8706  -8.8537  -8.8130  -8.8013
    -8.7468  -8.7189  -8.6896  -8.6560  -8.6367  -8.5873  -8.5178  -8.5108
    -5.2572  -5.2452  -5.2414  -5.2354  -5.2321  -5.2197  -5.1952  -5.1737
    -5.1694  -5.1592  -5.1547  -5.1439  -5.1180  -5.1099  -5.1087  -5.1062
    -5.0997  -5.0954  -5.0882  -5.0841  -5.0780  -5.0069  -4.9978  -4.9869
    -4.1923  -3.9784  -3.9464  -3.7338  -3.6520  -3.4403  -3.4040  -3.1534
    -0.6907  -0.6046  -0.5226  -0.4785  -0.3338  -0.2354  -0.1883  -0.1066
    -0.0746  -0.0068   0.0789   0.1074   0.3343   0.4408   0.4700   0.4963
     0.5319   0.5533   0.6044   0.6277   0.6549   0.6724   0.6975   0.7458
     0.7855   0.8594   0.9225   0.9441   0.9905   1.0275   1.0741   1.1065
     1.1330   1.1718   1.1948   1.2505   1.2626   1.2917   1.3412   1.3618
     1.4053   1.4335   1.4625   1.5075   1.5134   1.5441   1.5625   1.5745
     1.6190   1.6408   1.6590   1.6928   1.7302   1.7500   1.7823   1.7966
     1.8204   1.8530   1.8681   1.8921   1.9074   1.9578   1.9951   2.0234
     2.0676   2.1017   2.1523   2.2254   2.2648   2.4005   2.4969   2.5834

          k = 0.3750 0.1250-0.3750 (132616 PWs)   bands (ev):

   -18.4892 -18.4592 -18.3924 -18.3813 -18.3498 -18.3467 -18.3397 -18.3334
   -18.3301 -18.3268 -18.3224 -18.3153 -18.3151 -18.3090 -18.2991 -18.2956
   -18.2865 -18.2683 -18.2617 -18.2581 -18.2570 -18.2555 -18.2554 -18.2482
   -18.2473 -18.2457 -18.2452 -18.2376 -18.2342 -18.2334 -18.2303 -18.2236
   -18.2140 -18.2072 -18.2065 -18.2018 -18.1911 -18.1883 -18.1866 -18.1805
   -18.1758 -18.1681 -18.1636 -18.1632 -18.1507 -18.1455 -18.1391 -18.1275
    -9.4067  -9.3069  -9.2808  -9.2446  -9.1636  -9.1316  -9.1023  -9.0719
    -9.0004  -8.9630  -8.9424  -8.9155  -8.8655  -8.8444  -8.8154  -8.7971
    -8.7561  -8.7195  -8.6955  -8.6664  -8.6272  -8.5780  -8.5229  -8.5116
    -5.2570  -5.2459  -5.2407  -5.2359  -5.2318  -5.2194  -5.1956  -5.1737
    -5.1694  -5.1593  -5.1546  -5.1436  -5.1184  -5.1109  -5.1091  -5.1058
    -5.0986  -5.0962  -5.0878  -5.0827  -5.0791  -5.0068  -4.9981  -4.9868
    -4.1884  -4.0284  -3.8977  -3.7446  -3.6515  -3.4701  -3.3486  -3.1652
    -0.7002  -0.6044  -0.5407  -0.4521  -0.3259  -0.2351  -0.1855  -0.1319
    -0.0589   0.0168   0.0740   0.1475   0.3464   0.3869   0.4475   0.4650
     0.4970   0.5346   0.5658   0.6134   0.6605   0.6859   0.7294   0.7433
     0.8146   0.8925   0.9403   0.9533   0.9905   1.0065   1.0528   1.1078
     1.1184   1.1680   1.1913   1.2073   1.2508   1.2656   1.3272   1.3632
     1.4138   1.4316   1.4635   1.4807   1.5340   1.5711   1.5856   1.6180
     1.6356   1.6569   1.6801   1.6985   1.7062   1.7319   1.7793   1.7929
     1.8380   1.8507   1.8854   1.9300   1.9482   1.9775   2.0090   2.0166
     2.0411   2.0993   2.1182   2.1818   2.2764   2.4451   2.5029   2.5948

          k =-0.3750-0.1250-0.3750 (132616 PWs)   bands (ev):

   -18.4892 -18.4592 -18.3924 -18.3813 -18.3498 -18.3467 -18.3397 -18.3333
   -18.3301 -18.3268 -18.3224 -18.3153 -18.3151 -18.3090 -18.2991 -18.2956
   -18.2865 -18.2683 -18.2617 -18.2581 -18.2570 -18.2555 -18.2554 -18.2482
   -18.2473 -18.2457 -18.2452 -18.2376 -18.2342 -18.2334 -18.2303 -18.2236
   -18.2140 -18.2072 -18.2065 -18.2018 -18.1911 -18.1883 -18.1866 -18.1805
   -18.1758 -18.1681 -18.1636 -18.1632 -18.1507 -18.1455 -18.1391 -18.1275
    -9.4076  -9.3028  -9.2800  -9.2493  -9.1640  -9.1336  -9.1000  -9.0699
    -9.0003  -8.9691  -8.9351  -8.9183  -8.8647  -8.8463  -8.8119  -8.7995
    -8.7540  -8.7201  -8.6957  -8.6702  -8.6243  -8.5780  -8.5238  -8.5110
    -5.2570  -5.2459  -5.2408  -5.2358  -5.2319  -5.2195  -5.1955  -5.1737
    -5.1694  -5.1594  -5.1547  -5.1437  -5.1182  -5.1110  -5.1089  -5.1058
    -5.0988  -5.0965  -5.0875  -5.0827  -5.0791  -5.0069  -4.9981  -4.9867
    -4.1947  -3.9935  -3.9353  -3.7321  -3.6598  -3.4327  -3.3907  -3.1554
    -0.6972  -0.5973  -0.5442  -0.4558  -0.3178  -0.2607  -0.1873  -0.1135
    -0.0703   0.0074   0.0777   0.1619   0.3644   0.3781   0.4126   0.4699
     0.5021   0.5488   0.5752   0.6193   0.6561   0.6827   0.7042   0.7638
     0.8173   0.9057   0.9230   0.9590   0.9878   1.0134   1.0569   1.0920
     1.1144   1.1601   1.1942   1.2292   1.2508   1.2748   1.3340   1.3542
     1.4127   1.4313   1.4642   1.5017   1.5407   1.5597   1.5792   1.5900
     1.6479   1.6588   1.6738   1.6846   1.6978   1.7459   1.7815   1.8084
     1.8392   1.8503   1.8738   1.8846   1.9483   1.9691   2.0236   2.0401
     2.0620   2.0884   2.1191   2.1746   2.2706   2.4356   2.5126   2.6074

          k = 0.3750-0.1250 0.3750 (132616 PWs)   bands (ev):

   -18.4892 -18.4592 -18.3924 -18.3813 -18.3498 -18.3467 -18.3397 -18.3334
   -18.3301 -18.3268 -18.3224 -18.3153 -18.3151 -18.3090 -18.2991 -18.2956
   -18.2865 -18.2683 -18.2617 -18.2581 -18.2570 -18.2555 -18.2554 -18.2482
   -18.2473 -18.2457 -18.2452 -18.2376 -18.2342 -18.2334 -18.2303 -18.2236
   -18.2140 -18.2072 -18.2065 -18.2018 -18.1911 -18.1883 -18.1866 -18.1805
   -18.1758 -18.1681 -18.1636 -18.1632 -18.1507 -18.1455 -18.1391 -18.1275
    -9.4075  -9.3041  -9.2743  -9.2558  -9.1587  -9.1368  -9.0969  -9.0734
    -9.0027  -8.9621  -8.9413  -8.9142  -8.8663  -8.8498  -8.8134  -8.7940
    -8.7582  -8.7155  -8.6957  -8.6705  -8.6251  -8.5783  -8.5237  -8.5111
    -5.2570  -5.2459  -5.2407  -5.2360  -5.2318  -5.2194  -5.1956  -5.1736
    -5.1694  -5.1595  -5.1546  -5.1437  -5.1183  -5.1109  -5.1089  -5.1056
    -5.0988  -5.0967  -5.0875  -5.0827  -5.0792  -5.0068  -4.9981  -4.9868
    -4.1960  -3.9898  -3.9393  -3.7352  -3.6510  -3.4353  -3.3920  -3.1562
    -0.7012  -0.5865  -0.5427  -0.4461  -0.3259  -0.2640  -0.1874  -0.1253
    -0.0671   0.0048   0.0779   0.1609   0.3600   0.3766   0.4362   0.4675
     0.4952   0.5524   0.5664   0.6131   0.6532   0.6684   0.7157   0.7738
     0.8226   0.9066   0.9304   0.9541   0.9879   1.0001   1.0619   1.0891
     1.1147   1.1565   1.1807   1.2059   1.2619   1.2902   1.3448   1.3679
     1.3980   1.4478   1.4623   1.5033   1.5379   1.5701   1.5844   1.6154
     1.6216   1.6411   1.6752   1.6906   1.7222   1.7505   1.7675   1.8010
     1.8327   1.8471   1.8727   1.8863   1.9632   1.9654   2.0225   2.0282
     2.0547   2.0972   2.1191   2.1656   2.2910   2.4184   2.5086   2.6099

          k =-0.3750 0.1250 0.3750 (132616 PWs)   bands (ev):

   -18.4892 -18.4592 -18.3924 -18.3813 -18.3498 -18.3467 -18.3397 -18.3334
   -18.3301 -18.3268 -18.3224 -18.3153 -18.3151 -18.3090 -18.2991 -18.2956
   -18.2865 -18.2683 -18.2617 -18.2581 -18.2570 -18.2555 -18.2554 -18.2482
   -18.2473 -18.2457 -18.2452 -18.2376 -18.2342 -18.2334 -18.2303 -18.2236
   -18.2140 -18.2072 -18.2065 -18.2018 -18.1911 -18.1883 -18.1866 -18.1805
   -18.1758 -18.1681 -18.1636 -18.1632 -18.1507 -18.1455 -18.1391 -18.1275
    -9.4076  -9.3042  -9.2749  -9.2542  -9.1616  -9.1356  -9.1009  -9.0662
    -9.0023  -8.9698  -8.9368  -8.9125  -8.8686  -8.8489  -8.8137  -8.7939
    -8.7542  -8.7227  -8.6944  -8.6663  -8.6274  -8.5785  -8.5227  -8.5115
    -5.2570  -5.2458  -5.2407  -5.2359  -5.2318  -5.2194  -5.1956  -5.1737
    -5.1693  -5.1594  -5.1546  -5.1439  -5.1184  -5.1109  -5.1091  -5.1058
    -5.0986  -5.0962  -5.0877  -5.0827  -5.0792  -5.0067  -4.9981  -4.9868
    -4.1909  -4.0259  -3.8993  -3.7377  -3.6537  -3.4727  -3.3493  -3.1657
    -0.6974  -0.5824  -0.5443  -0.4481  -0.3310  -0.2538  -0.1901  -0.1371
    -0.0588   0.0210   0.0615   0.1285   0.3471   0.3928   0.4647   0.4798
     0.5116   0.5432   0.5694   0.5947   0.6541   0.6858   0.7148   0.7386
     0.8426   0.8910   0.9381   0.9685   0.9742   1.0116   1.0484   1.1086
     1.1127   1.1336   1.1708   1.2058   1.2604   1.3096   1.3506   1.3708
     1.4127   1.4515   1.4717   1.5046   1.5334   1.5506   1.5751   1.6099
     1.6225   1.6565   1.6702   1.6798   1.7240   1.7346   1.7513   1.7936
     1.8471   1.8560   1.8729   1.9054   1.9467   1.9804   2.0033   2.0127
     2.0548   2.1023   2.1292   2.1739   2.2971   2.4292   2.5076   2.6008

          k = 0.3750-0.3750 0.1250 (132616 PWs)   bands (ev):

   -18.4892 -18.4592 -18.3924 -18.3813 -18.3498 -18.3466 -18.3397 -18.3333
   -18.3301 -18.3268 -18.3224 -18.3153 -18.3151 -18.3090 -18.2991 -18.2956
   -18.2865 -18.2683 -18.2617 -18.2581 -18.2570 -18.2555 -18.2554 -18.2482
   -18.2473 -18.2457 -18.2452 -18.2376 -18.2342 -18.2334 -18.2303 -18.2236
   -18.2140 -18.2072 -18.2065 -18.2018 -18.1911 -18.1883 -18.1866 -18.1805
   -18.1758 -18.1681 -18.1636 -18.1632 -18.1507 -18.1455 -18.1391 -18.1275
    -9.3900  -9.3353  -9.2868  -9.2316  -9.1524  -9.1421  -9.1166  -9.0559
    -8.9931  -8.9666  -8.9339  -8.8987  -8.8681  -8.8594  -8.8294  -8.7975
    -8.7598  -8.7216  -8.6908  -8.6612  -8.6221  -8.5795  -8.5279  -8.5093
    -5.2573  -5.2450  -5.2414  -5.2356  -5.2324  -5.2195  -5.1947  -5.1727
    -5.1687  -5.1598  -5.1550  -5.1452  -5.1178  -5.1101  -5.1091  -5.1056
    -5.0998  -5.0957  -5.0883  -5.0836  -5.0783  -5.0070  -4.9981  -4.9867
    -4.1903  -4.0039  -3.9307  -3.7311  -3.6555  -3.4489  -3.3832  -3.1552
    -0.6327  -0.5561  -0.5028  -0.4539  -0.3729  -0.2735  -0.1804  -0.1266
    -0.0567  -0.0397   0.0184   0.1353   0.2888   0.4229   0.4371   0.4603
     0.4937   0.5297   0.5728   0.5996   0.6789   0.7079   0.7379   0.7578
     0.8139   0.8769   0.9075   0.9523   0.9798   1.0131   1.0595   1.1118
     1.1291   1.1888   1.2201   1.2338   1.2667   1.2846   1.3366   1.3593
     1.3855   1.4189   1.4433   1.4859   1.5286   1.5610   1.6001   1.6185
     1.6333   1.6532   1.6765   1.6962   1.7344   1.7511   1.7646   1.7945
     1.8283   1.8514   1.8734   1.8890   1.9441   1.9783   2.0260   2.0368
     2.0726   2.0937   2.1298   2.1913   2.2850   2.3907   2.5165   2.6099

          k =-0.3750-0.3750-0.1250 (132616 PWs)   bands (ev):

   -18.4892 -18.4592 -18.3924 -18.3813 -18.3498 -18.3466 -18.3397 -18.3333
   -18.3301 -18.3268 -18.3224 -18.3153 -18.3151 -18.3090 -18.2991 -18.2956
   -18.2865 -18.2683 -18.2617 -18.2581 -18.2570 -18.2555 -18.2554 -18.2482
   -18.2473 -18.2457 -18.2452 -18.2376 -18.2342 -18.2334 -18.2303 -18.2236
   -18.2140 -18.2072 -18.2065 -18.2018 -18.1911 -18.1883 -18.1866 -18.1805
   -18.1758 -18.1681 -18.1636 -18.1632 -18.1507 -18.1455 -18.1391 -18.1275
    -9.3898  -9.3363  -9.2865  -9.2279  -9.1550  -9.1487  -9.1128  -9.0519
    -8.9911  -8.9709  -8.9342  -8.8998  -8.8685  -8.8571  -8.8247  -8.8030
    -8.7516  -8.7314  -8.6895  -8.6606  -8.6217  -8.5789  -8.5280  -8.5094
    -5.2573  -5.2449  -5.2415  -5.2354  -5.2324  -5.2195  -5.1947  -5.1728
    -5.1687  -5.1598  -5.1550  -5.1451  -5.1177  -5.1102  -5.1091  -5.1059
    -5.0998  -5.0954  -5.0883  -5.0836  -5.0783  -5.0071  -4.9981  -4.9867
    -4.1864  -4.0157  -3.9234  -3.7298  -3.6460  -3.4835  -3.3575  -3.1559
    -0.6234  -0.5651  -0.4988  -0.4701  -0.3956  -0.2279  -0.1913  -0.1590
    -0.0634  -0.0340   0.0796   0.1537   0.2709   0.3980   0.4253   0.4695
     0.4804   0.5146   0.5895   0.6479   0.6688   0.6838   0.7175   0.7530
     0.8149   0.8923   0.9259   0.9432   0.9801   1.0095   1.0628   1.0925
     1.1547   1.1822   1.2183   1.2407   1.2711   1.2984   1.3135   1.3488
     1.3907   1.4086   1.4606   1.4958   1.5338   1.5650   1.5781   1.6093
     1.6224   1.6391   1.6810   1.7144   1.7422   1.7501   1.7738   1.7912
     1.8238   1.8546   1.8794   1.8886   1.9323   1.9753   2.0120   2.0580
     2.0672   2.0986   2.1052   2.2014   2.3032   2.3786   2.5094   2.6272

          k = 0.3750 0.3750-0.1250 (132616 PWs)   bands (ev):

   -18.4892 -18.4592 -18.3924 -18.3813 -18.3498 -18.3466 -18.3397 -18.3334
   -18.3301 -18.3268 -18.3224 -18.3153 -18.3151 -18.3090 -18.2991 -18.2956
   -18.2865 -18.2683 -18.2617 -18.2581 -18.2570 -18.2555 -18.2554 -18.2482
   -18.2473 -18.2457 -18.2452 -18.2376 -18.2342 -18.2334 -18.2303 -18.2236
   -18.2140 -18.2072 -18.2065 -18.2018 -18.1911 -18.1883 -18.1866 -18.1805
   -18.1758 -18.1681 -18.1636 -18.1632 -18.1507 -18.1455 -18.1391 -18.1275
    -9.3886  -9.3381  -9.2874  -9.2274  -9.1542  -9.1452  -9.1153  -9.0537
    -8.9912  -8.9678  -8.9375  -8.8978  -8.8702  -8.8545  -8.8267  -8.8043
    -8.7504  -8.7322  -8.6885  -8.6589  -8.6233  -8.5791  -8.5275  -8.5096
    -5.2573  -5.2450  -5.2414  -5.2355  -5.2324  -5.2194  -5.1948  -5.1728
    -5.1687  -5.1596  -5.1550  -5.1451  -5.1180  -5.1101  -5.1092  -5.1060
    -5.0995  -5.0952  -5.0886  -5.0836  -5.0782  -5.0070  -4.9982  -4.9867
    -4.1846  -4.0171  -3.9265  -3.7349  -3.6379  -3.4821  -3.3554  -3.1599
    -0.6299  -0.5606  -0.5023  -0.4663  -0.3983  -0.2335  -0.1813  -0.1522
    -0.0602  -0.0403   0.0933   0.1502   0.2668   0.4037   0.4154   0.4620
     0.4879   0.5084   0.5830   0.6410   0.6760   0.6895   0.7139   0.7663
     0.8105   0.8745   0.9155   0.9558   0.9970   1.0034   1.0622   1.0913
     1.1635   1.1871   1.2102   1.2376   1.2684   1.2790   1.3293   1.3350
     1.3874   1.4155   1.4488   1.4958   1.5225   1.5692   1.5845   1.6114
     1.6277   1.6602   1.6895   1.6993   1.7314   1.7557   1.7713   1.7905
     1.8199   1.8616   1.8882   1.9182   1.9437   1.9615   2.0049   2.0383
     2.0605   2.1043   2.1228   2.2041   2.3169   2.3716   2.4992   2.6132

          k =-0.3750 0.3750 0.1250 (132616 PWs)   bands (ev):

   -18.4892 -18.4592 -18.3924 -18.3813 -18.3498 -18.3466 -18.3397 -18.3333
   -18.3301 -18.3268 -18.3224 -18.3153 -18.3151 -18.3090 -18.2991 -18.2956
   -18.2865 -18.2683 -18.2617 -18.2581 -18.2570 -18.2555 -18.2554 -18.2482
   -18.2473 -18.2457 -18.2452 -18.2376 -18.2342 -18.2334 -18.2303 -18.2236
   -18.2140 -18.2072 -18.2065 -18.2018 -18.1911 -18.1883 -18.1866 -18.1805
   -18.1758 -18.1681 -18.1636 -18.1632 -18.1507 -18.1455 -18.1391 -18.1275
    -9.3907  -9.3328  -9.2883  -9.2323  -9.1534  -9.1427  -9.1155  -9.0521
    -8.9933  -8.9712  -8.9339  -8.8938  -8.8723  -8.8584  -8.8273  -8.8013
    -8.7535  -8.7282  -8.6888  -8.6600  -8.6229  -8.5797  -8.5275  -8.5093
    -5.2573  -5.2449  -5.2414  -5.2355  -5.2323  -5.2195  -5.1948  -5.1727
    -5.1687  -5.1597  -5.1550  -5.1453  -5.1179  -5.1101  -5.1092  -5.1058
    -5.0995  -5.0952  -5.0885  -5.0836  -5.0783  -5.0070  -4.9981  -4.9867
    -4.1897  -4.0060  -3.9302  -3.7328  -3.6525  -3.4508  -3.3783  -3.1589
    -0.6208  -0.5580  -0.5111  -0.4434  -0.3778  -0.2793  -0.1849  -0.1268
    -0.0565  -0.0352   0.0044   0.1279   0.2936   0.4174   0.4477   0.4732
     0.5164   0.5250   0.5806   0.6135   0.6711   0.6929   0.7133   0.7621
     0.8049   0.8812   0.9193   0.9450   0.9700   1.0132   1.0782   1.1006
     1.1418   1.1763   1.2015   1.2479   1.2658   1.3017   1.3373   1.3540
     1.3860   1.4164   1.4614   1.5068   1.5266   1.5579   1.5771   1.6102
     1.6310   1.6586   1.6697   1.6925   1.7293   1.7477   1.7710   1.7834
     1.8279   1.8450   1.8760   1.9124   1.9269   1.9687   2.0127   2.0551
     2.0758   2.1035   2.1361   2.1799   2.2981   2.4064   2.5099   2.5987

          k =-0.3750-0.3750 0.3750 (132612 PWs)   bands (ev):

   -18.4892 -18.4592 -18.3924 -18.3813 -18.3498 -18.3466 -18.3397 -18.3333
   -18.3301 -18.3268 -18.3224 -18.3153 -18.3151 -18.3090 -18.2991 -18.2956
   -18.2865 -18.2683 -18.2617 -18.2581 -18.2570 -18.2555 -18.2554 -18.2482
   -18.2473 -18.2457 -18.2452 -18.2376 -18.2342 -18.2334 -18.2303 -18.2236
   -18.2140 -18.2072 -18.2065 -18.2018 -18.1911 -18.1883 -18.1866 -18.1805
   -18.1758 -18.1681 -18.1636 -18.1632 -18.1507 -18.1455 -18.1391 -18.1275
    -9.3781  -9.3318  -9.2876  -9.2373  -9.1634  -9.1397  -9.1228  -9.0702
    -8.9917  -8.9669  -8.9352  -8.9133  -8.8632  -8.8465  -8.8152  -8.7942
    -8.7462  -8.7212  -8.6908  -8.6639  -8.6284  -8.5820  -8.5268  -8.5128
    -5.2573  -5.2452  -5.2414  -5.2354  -5.2321  -5.2197  -5.1956  -5.1737
    -5.1696  -5.1591  -5.1548  -5.1438  -5.1182  -5.1103  -5.1087  -5.1059
    -5.0988  -5.0960  -5.0875  -5.0836  -5.0783  -5.0069  -4.9979  -4.9868
    -4.0641  -3.9257  -3.8449  -3.7527  -3.6696  -3.6043  -3.5044  -3.3477
    -0.4399  -0.3965  -0.3149  -0.2322  -0.2225  -0.1707  -0.1138  -0.0730
    -0.0256   0.0019   0.1024   0.2336   0.2606   0.3321   0.3823   0.4196
     0.4620   0.4766   0.5324   0.5695   0.5975   0.6291   0.6755   0.6982
     0.8261   0.8659   0.9023   0.9572   0.9799   1.0101   1.0280   1.0635
     1.0940   1.1160   1.1439   1.1768   1.2007   1.2364   1.2492   1.2906
     1.3689   1.4103   1.4575   1.4672   1.5134   1.5568   1.5902   1.6038
     1.6434   1.6792   1.6903   1.7216   1.7525   1.7900   1.7982   1.8151
     1.8444   1.8701   1.9075   1.9172   1.9512   1.9634   1.9755   1.9983
     2.0161   2.0561   2.0800   2.1038   2.1505   2.1747   2.2347   2.3586

          k =-0.3750 0.3750-0.3750 (132612 PWs)   bands (ev):

   -18.4892 -18.4592 -18.3924 -18.3813 -18.3498 -18.3466 -18.3397 -18.3333
   -18.3301 -18.3268 -18.3224 -18.3153 -18.3151 -18.3090 -18.2991 -18.2956
   -18.2865 -18.2683 -18.2617 -18.2581 -18.2570 -18.2555 -18.2554 -18.2482
   -18.2473 -18.2457 -18.2452 -18.2376 -18.2342 -18.2334 -18.2303 -18.2236
   -18.2140 -18.2072 -18.2065 -18.2018 -18.1911 -18.1883 -18.1866 -18.1805
   -18.1758 -18.1681 -18.1636 -18.1632 -18.1507 -18.1455 -18.1391 -18.1275
    -9.3797  -9.3293  -9.2853  -9.2418  -9.1620  -9.1402  -9.1222  -9.0707
    -8.9924  -8.9656  -8.9364  -8.9093  -8.8666  -8.8499  -8.8147  -8.7889
    -8.7514  -8.7145  -8.6925  -8.6663  -8.6275  -8.5822  -8.5272  -8.5126
    -5.2573  -5.2452  -5.2414  -5.2355  -5.2321  -5.2197  -5.1955  -5.1735
    -5.1696  -5.1592  -5.1548  -5.1439  -5.1181  -5.1103  -5.1085  -5.1057
    -5.0991  -5.0964  -5.0872  -5.0836  -5.0783  -5.0069  -4.9979  -4.9867
    -4.0746  -3.8839  -3.8646  -3.7824  -3.6303  -3.5910  -3.5501  -3.3367
    -0.4436  -0.3493  -0.3052  -0.2736  -0.2224  -0.1769  -0.1070  -0.0865
    -0.0492   0.0234   0.0934   0.2069   0.2662   0.3485   0.3880   0.4134
     0.4576   0.4834   0.5333   0.5711   0.5960   0.6277   0.6753   0.7068
     0.8585   0.8894   0.9074   0.9324   0.9632   0.9900   1.0308   1.0436
     1.0884   1.1194   1.1515   1.1737   1.1937   1.2388   1.2845   1.3088
     1.3624   1.4126   1.4588   1.4704   1.5305   1.5370   1.5985   1.6186
     1.6590   1.6663   1.6888   1.7099   1.7567   1.7750   1.7821   1.8238
     1.8442   1.8653   1.8867   1.8999   1.9213   1.9642   2.0028   2.0136
     2.0273   2.0460   2.0763   2.0937   2.1300   2.2035   2.2415   2.3662

          k = 0.3750-0.3750-0.3750 (132612 PWs)   bands (ev):

   -18.4892 -18.4592 -18.3924 -18.3813 -18.3498 -18.3466 -18.3397 -18.3333
   -18.3301 -18.3268 -18.3224 -18.3153 -18.3151 -18.3090 -18.2991 -18.2956
   -18.2865 -18.2683 -18.2617 -18.2581 -18.2570 -18.2555 -18.2554 -18.2482
   -18.2473 -18.2457 -18.2452 -18.2376 -18.2342 -18.2334 -18.2303 -18.2236
   -18.2140 -18.2072 -18.2065 -18.2018 -18.1911 -18.1883 -18.1866 -18.1805
   -18.1758 -18.1681 -18.1636 -18.1632 -18.1507 -18.1455 -18.1391 -18.1275
    -9.3808  -9.3254  -9.2882  -9.2423  -9.1620  -9.1429  -9.1201  -9.0673
    -8.9925  -8.9709  -8.9341  -8.9074  -8.8677  -8.8514  -8.8091  -8.7950
    -8.7436  -8.7241  -8.6900  -8.6637  -8.6287  -8.5826  -8.5267  -8.5127
    -5.2573  -5.2452  -5.2414  -5.2355  -5.2321  -5.2198  -5.1956  -5.1736
    -5.1695  -5.1592  -5.1548  -5.1440  -5.1182  -5.1103  -5.1086  -5.1059
    -5.0989  -5.0961  -5.0874  -5.0837  -5.0783  -5.0068  -4.9979  -4.9868
    -4.0717  -3.9102  -3.8477  -3.7644  -3.6436  -3.6177  -3.5117  -3.3469
    -0.4265  -0.3517  -0.3043  -0.2549  -0.2331  -0.1916  -0.1297  -0.0870
    -0.0229   0.0048   0.0669   0.1825   0.2762   0.3730   0.3992   0.4582
     0.4616   0.5129   0.5267   0.5562   0.5994   0.6306   0.6430   0.6912
     0.8396   0.8782   0.9064   0.9453   0.9833   1.0050   1.0328   1.0474
     1.0862   1.0932   1.1324   1.1650   1.2113   1.2584   1.2703   1.3075
     1.3851   1.4286   1.4546   1.4838   1.5153   1.5462   1.5844   1.6129
     1.6281   1.6470   1.6950   1.7099   1.7481   1.7913   1.8032   1.8166
     1.8514   1.8633   1.8758   1.9068   1.9204   1.9623   1.9703   2.0120
     2.0319   2.0603   2.0892   2.1066   2.1473   2.2074   2.2402   2.3466

     highest occupied level (ev):     3.1196

!    total energy              =   -2256.29801303 Ry
     estimated scf accuracy    <          5.6E-11 Ry

     The total energy is the sum of the following terms:
     one-electron contribution =    -982.50916073 Ry
     hartree contribution      =     619.26262854 Ry
     xc contribution           =    -647.44101764 Ry
     ewald contribution        =   -1245.61046320 Ry

     convergence has been achieved in  15 iterations

     Forces acting on atoms (cartesian axes, Ry/au):

     atom    1 type  1   force =     0.00048345   -0.00108169    0.00306688
     atom    2 type  2   force =     0.00689747   -0.01624067    0.00850027
     atom    3 type  3   force =     0.00267621   -0.00232484   -0.00541278
     atom    4 type  3   force =    -0.00344570    0.00044672   -0.00195654
     atom    5 type  3   force =     0.00050615    0.02012042   -0.00082200
     atom    6 type  1   force =     0.00130883   -0.00238864   -0.00234536
     atom    7 type  2   force =     0.00972360    0.00546341   -0.00979171
     atom    8 type  3   force =     0.00194256    0.00163968   -0.00122918
     atom    9 type  3   force =    -0.00126980    0.00574810    0.01583273
     atom   10 type  3   force =     0.00069588   -0.00926075    0.00510355
     atom   11 type  1   force =     0.00168799    0.00061897    0.00477403
     atom   12 type  2   force =     0.00810101   -0.00143191    0.01489126
     atom   13 type  3   force =     0.02316111   -0.00789592   -0.00062057
     atom   14 type  3   force =     0.00182287    0.00426158   -0.00377706
     atom   15 type  3   force =    -0.00746442    0.00290526   -0.00270010
     atom   16 type  1   force =     0.00119692    0.00335612   -0.00506732
     atom   17 type  2   force =    -0.00928865   -0.00603428   -0.02045866
     atom   18 type  3   force =    -0.00922214   -0.00286843    0.00421658
     atom   19 type  3   force =     0.00460353    0.00068903    0.00972726
     atom   20 type  3   force =    -0.00115634   -0.00030963   -0.00524746
     atom   21 type  1   force =     0.01001623    0.00167858    0.01190735
     atom   22 type  2   force =    -0.00732699    0.01020278   -0.00070157
     atom   23 type  3   force =    -0.00655931    0.00156357    0.00094037
     atom   24 type  3   force =     0.00599882    0.00146957    0.01363115
     atom   25 type  3   force =    -0.02277388   -0.01893755   -0.01323471
     atom   26 type  1   force =    -0.00299380    0.00240624   -0.00154571
     atom   27 type  2   force =    -0.00991288    0.00895112    0.00006022
     atom   28 type  3   force =    -0.00358051    0.01254869    0.01004305
     atom   29 type  3   force =     0.00400758    0.00278800   -0.01175700
     atom   30 type  3   force =     0.00060627    0.00247467   -0.00017700
     atom   31 type  1   force =    -0.00016027   -0.01265377   -0.01013438
     atom   32 type  2   force =     0.00302980   -0.01260097    0.00688951
     atom   33 type  3   force =    -0.00533071    0.01252476   -0.00323460
     atom   34 type  3   force =    -0.00373858    0.00330091   -0.00629668
     atom   35 type  3   force =    -0.00397444    0.00358773   -0.00063148
     atom   36 type  1   force =    -0.00539550   -0.00464041   -0.00008389
     atom   37 type  2   force =     0.01051376   -0.00489756   -0.00896281
     atom   38 type  3   force =     0.00591673    0.00804642   -0.00385891
     atom   39 type  3   force =    -0.00379618   -0.00009776    0.00830286
     atom   40 type  3   force =     0.00249330   -0.01312756    0.00216036

     Total force =     0.084439     Total SCF correction =     0.000035


     Computing stress (Cartesian axis) and pressure

          total   stress  (Ry/bohr**3)                   (kbar)     P=       -8.33
  -0.00006039   0.00000339   0.00000160           -8.88        0.50        0.24
   0.00000339  -0.00005169   0.00000099            0.50       -7.60        0.15
   0.00000160   0.00000099  -0.00005784            0.24        0.15       -8.51

 
     init_run     :     20.22s CPU     16.93s WALL (       1 calls)
     electrons    :    197.72s CPU    212.43s WALL (       1 calls)
     forces       :      8.89s CPU      3.98s WALL (       1 calls)
     stress       :     30.90s CPU     31.25s WALL (       1 calls)

     Called by init_run:
     wfcinit      :     12.25s CPU     13.87s WALL (       1 calls)
                                       13.87s GPU  (       1 calls)
     potinit      :      4.50s CPU      1.39s WALL (       1 calls)
     hinit0       :      2.88s CPU      1.00s WALL (       1 calls)

     Called by electrons:
     c_bands      :    116.77s CPU    169.84s WALL (      16 calls)
     sum_band     :     21.61s CPU     21.14s WALL (      16 calls)
                                       21.14s GPU  (      16 calls)
     v_of_rho     :     54.92s CPU     16.69s WALL (      16 calls)
     mix_rho      :      6.43s CPU      5.01s WALL (      16 calls)

     Called by c_bands:
     init_us_2    :      2.45s CPU      3.22s WALL (     280 calls)
                                        3.22s GPU  (     280 calls)
     cegterg      :     77.60s CPU    127.67s WALL (     128 calls)

     Called by *egterg:
     cdiaghg      :     13.89s CPU     26.12s WALL (     655 calls)
                                       26.08s GPU  (     655 calls)
     h_psi        :     51.96s CPU     73.29s WALL (     671 calls)
                                       72.85s GPU  (     671 calls)
     g_psi        :      0.00s CPU      0.36s WALL (     535 calls)
                                        0.35s GPU  (     535 calls)

     Called by h_psi:
     h_psi:calbec :      0.32s CPU      9.90s WALL (     671 calls)
                                        9.89s GPU  (     671 calls)
     vloc_psi     :     37.82s CPU     53.45s WALL (     671 calls)
                                       52.54s GPU  (     671 calls)
     add_vuspsi   :      0.33s CPU      9.86s WALL (     671 calls)
                                        9.85s GPU  (     671 calls)

     General routines
     calbec       :      0.32s CPU      0.40s WALL (     711 calls)
     fft          :     25.59s CPU      6.59s WALL (     185 calls)
                                        0.00s GPU  (       6 calls)
     ffts         :      2.66s CPU      0.68s WALL (      16 calls)
     fftw         :      0.68s CPU     62.04s WALL (   10342 calls)
                                       46.36s GPU  (   10342 calls)
 
     Parallel routines
 
     PWSCF        :   4m18.36s CPU   4m25.40s WALL

 
   This run was terminated on:  20:13:53  22Apr2021            

=------------------------------------------------------------------------------=
   JOB DONE.
=------------------------------------------------------------------------------=
