
     Program PWSCF v.6.7MaX starts on 22Apr2021 at 21:33:26 

     This program is part of the open-source Quantum ESPRESSO suite
     for quantum simulation of materials; please cite
         "P. Giannozzi et al., J. Phys.:Condens. Matter 21 395502 (2009);
         "P. Giannozzi et al., J. Phys.:Condens. Matter 29 465901 (2017);
         "P. Giannozzi et al., J. Chem. Phys. 152 154105 (2020);
          URL http://www.quantum-espresso.org", 
     in publications or presentations arising from this work. More details at
     http://www.quantum-espresso.org/quote

     Parallel version (MPI & OpenMP), running on      16 processor cores
     Number of MPI processes:                 4
     Threads/MPI process:                     4

     MPI processes distributed on     1 nodes
     K-points division:     npool     =       4
     Reading input from ESP_98.pwi
Warning: card &CELL ignored
Warning: card / ignored

     Current dimensions of program PWSCF are:
     Max number of different atomic species (ntypx) = 10
     Max number of k-points (npk) =  40000
     Max angular momentum in pseudopotentials (lmaxx) =  3
     Message from routine read_pp_mesh:
     mesh size missing, using the one in header
     Message from routine read_pp_mesh:
     mesh size missing, using the one in header
     Message from routine read_pp_mesh:
     mesh size missing, using the one in header

     Subspace diagonalization in iterative solution of the eigenvalue problem:
     a serial algorithm will be used

 
     G-vector sticks info
     --------------------
     sticks:   dense  smooth     PW     G-vecs:    dense   smooth      PW
     Sum       12589   12589   3289              1061107  1061107  140905
 
     Using Slab Decomposition
 


     bravais-lattice index     =            0
     lattice parameter (alat)  =      23.7585  a.u.
     unit-cell volume          =   13410.8736 (a.u.)^3
     number of atoms/cell      =           40
     number of atomic types    =            3
     number of electrons       =       352.00
     number of Kohn-Sham states=          176
     kinetic-energy cutoff     =      70.0000  Ry
     charge density cutoff     =     280.0000  Ry
     scf convergence threshold =      1.0E-10
     mixing beta               =       0.7000
     number of iterations used =            8  plain     mixing
     Exchange-correlation= PBESOL
                           (   1   4  10   8   0   0   0)

     GPU acceleration is ACTIVE.


     celldm(1)=  23.758500  celldm(2)=   0.000000  celldm(3)=   0.000000
     celldm(4)=   0.000000  celldm(5)=   0.000000  celldm(6)=   0.000000

     crystal axes: (cart. coord. in units of alat)
               a(1) = (   1.000000   0.000000   0.000000 )  
               a(2) = (   0.000000   1.000000   0.000000 )  
               a(3) = (   0.000000   0.000000   1.000000 )  

     reciprocal axes: (cart. coord. in units 2 pi/alat)
               b(1) = (  1.000000  0.000000  0.000000 )  
               b(2) = (  0.000000  1.000000  0.000000 )  
               b(3) = (  0.000000  0.000000  1.000000 )  


     PseudoPot. # 1 for Cs read from file:
     /m100/home/userexternal/lmonacel/espresso/pseudo/Cs-nc-pbesol.upf
     MD5 check sum: 9d2f2206a14dc5b3b3f3fbfae186bed4
     Pseudo is Norm-conserving + core correction, Zval =  9.0
     Generated using ONCVPSP code by D. R. Hamann
     Using radial grid of 2384 points,  8 beta functions with: 
                l(1) =   0
                l(2) =   0
                l(3) =   1
                l(4) =   1
                l(5) =   2
                l(6) =   2
                l(7) =   3
                l(8) =   3

     PseudoPot. # 2 for Sn read from file:
     /m100/home/userexternal/lmonacel/espresso/pseudo/Sn-nc-pbesol.upf
     MD5 check sum: c2995d571af40102bfea7461443d92cf
     Pseudo is Norm-conserving + core correction, Zval = 14.0
     Generated using ONCVPSP code by D. R. Hamann
     Using radial grid of 1628 points,  6 beta functions with: 
                l(1) =   0
                l(2) =   0
                l(3) =   1
                l(4) =   1
                l(5) =   2
                l(6) =   2

     PseudoPot. # 3 for I  read from file:
     /m100/home/userexternal/lmonacel/espresso/pseudo/I-nc-pbesol.upf
     MD5 check sum: 80ed5ceb2eb9c553cfb6760a299d9c5b
     Pseudo is Norm-conserving + core correction, Zval =  7.0
     Generated using ONCVPSP code by D. R. Hamann
     Using radial grid of 1182 points,  6 beta functions with: 
                l(1) =   0
                l(2) =   0
                l(3) =   1
                l(4) =   1
                l(5) =   2
                l(6) =   2

     atomic species   valence    mass     pseudopotential
        Cs             9.00   132.90545     Cs( 1.00)
        Sn            14.00   118.71000     Sn( 1.00)
        I              7.00   126.90447     I ( 1.00)

     No symmetry found



   Cartesian axes

     site n.     atom                  positions (alat units)
         1           Cs  tau(   1) = (   0.2360183   0.2785456   0.2781497  )
         2           Sn  tau(   2) = (  -0.0101728   0.0017847   0.0099900  )
         3           I   tau(   3) = (   0.2416037   0.0163388  -0.0140156  )
         4           I   tau(   4) = (  -0.0261893   0.0277929   0.2721357  )
         5           I   tau(   5) = (  -0.0094195   0.2507394   0.0062271  )
         6           Cs  tau(   6) = (   0.3017441   0.2326857   0.7491422  )
         7           Sn  tau(   7) = (   0.0067289  -0.0006211   0.5072559  )
         8           I   tau(   8) = (   0.2459616  -0.0298746   0.5120369  )
         9           I   tau(   9) = (   0.0124678  -0.0289621   0.7595063  )
        10           I   tau(  10) = (   0.0042522   0.2443958   0.5182874  )
        11           Cs  tau(  11) = (   0.2454030   0.7145093   0.2093162  )
        12           Sn  tau(  12) = (   0.0031741   0.4996154   0.0178425  )
        13           I   tau(  13) = (   0.2347235   0.4845895   0.0278596  )
        14           I   tau(  14) = (  -0.0316218   0.4715026   0.2612823  )
        15           I   tau(  15) = (  -0.0179409   0.7511968   0.0503449  )
        16           Cs  tau(  16) = (   0.2545787   0.7685317   0.7394382  )
        17           Sn  tau(  17) = (  -0.0204552   0.4944776   0.5216368  )
        18           I   tau(  18) = (   0.2420834   0.5195027   0.4728723  )
        19           I   tau(  19) = (   0.0485320   0.5224138   0.7616085  )
        20           I   tau(  20) = (  -0.0300986   0.7558850   0.4970961  )
        21           Cs  tau(  21) = (   0.7894028   0.2727078   0.2332928  )
        22           Sn  tau(  22) = (   0.5060567   0.0183339  -0.0120324  )
        23           I   tau(  23) = (   0.7307720   0.0105940  -0.0424247  )
        24           I   tau(  24) = (   0.5197955   0.0063867   0.2459661  )
        25           I   tau(  25) = (   0.5168836   0.2559009  -0.0079694  )
        26           Cs  tau(  26) = (   0.7721812   0.2498666   0.7458999  )
        27           Sn  tau(  27) = (   0.5080016  -0.0014433   0.4730070  )
        28           I   tau(  28) = (   0.7539834   0.0272954   0.4938434  )
        29           I   tau(  29) = (   0.5126496   0.0222545   0.7490970  )
        30           I   tau(  30) = (   0.4629930   0.2448397   0.4747890  )
        31           Cs  tau(  31) = (   0.7635760   0.7306250   0.2666710  )
        32           Sn  tau(  32) = (   0.4843299   0.5073309   0.0018314  )
        33           I   tau(  33) = (   0.7466850   0.5158441  -0.0054127  )
        34           I   tau(  34) = (   0.5381077   0.4497772   0.2355353  )
        35           I   tau(  35) = (   0.4685922   0.7475731   0.0282042  )
        36           Cs  tau(  36) = (   0.7387039   0.7587038   0.7017922  )
        37           Sn  tau(  37) = (   0.4889984   0.4986872   0.5061569  )
        38           I   tau(  38) = (   0.7569313   0.4863065   0.5520627  )
        39           I   tau(  39) = (   0.4715764   0.4873771   0.7455848  )
        40           I   tau(  40) = (   0.5314490   0.7368703   0.4613593  )

     number of k points=    32
                       cart. coord. in units 2pi/alat
        k(    1) = (   0.1250000   0.1250000   0.1250000), wk =   0.0625000
        k(    2) = (   0.1250000   0.1250000   0.3750000), wk =   0.0625000
        k(    3) = (   0.1250000   0.3750000   0.3750000), wk =   0.0625000
        k(    4) = (   0.3750000   0.3750000   0.3750000), wk =   0.0625000
        k(    5) = (  -0.1250000  -0.1250000   0.1250000), wk =   0.0625000
        k(    6) = (  -0.1250000   0.1250000  -0.1250000), wk =   0.0625000
        k(    7) = (   0.1250000  -0.1250000  -0.1250000), wk =   0.0625000
        k(    8) = (  -0.1250000  -0.1250000   0.3750000), wk =   0.0625000
        k(    9) = (  -0.1250000   0.1250000  -0.3750000), wk =   0.0625000
        k(   10) = (   0.1250000  -0.1250000  -0.3750000), wk =   0.0625000
        k(   11) = (   0.3750000  -0.1250000   0.1250000), wk =   0.0625000
        k(   12) = (  -0.3750000  -0.1250000  -0.1250000), wk =   0.0625000
        k(   13) = (   0.3750000   0.1250000  -0.1250000), wk =   0.0625000
        k(   14) = (  -0.3750000   0.1250000   0.1250000), wk =   0.0625000
        k(   15) = (  -0.1250000   0.3750000   0.1250000), wk =   0.0625000
        k(   16) = (  -0.1250000  -0.3750000  -0.1250000), wk =   0.0625000
        k(   17) = (   0.1250000   0.3750000  -0.1250000), wk =   0.0625000
        k(   18) = (   0.1250000  -0.3750000   0.1250000), wk =   0.0625000
        k(   19) = (  -0.1250000  -0.3750000   0.3750000), wk =   0.0625000
        k(   20) = (  -0.1250000   0.3750000  -0.3750000), wk =   0.0625000
        k(   21) = (   0.1250000  -0.3750000  -0.3750000), wk =   0.0625000
        k(   22) = (   0.3750000   0.1250000  -0.3750000), wk =   0.0625000
        k(   23) = (  -0.3750000  -0.1250000  -0.3750000), wk =   0.0625000
        k(   24) = (   0.3750000  -0.1250000   0.3750000), wk =   0.0625000
        k(   25) = (  -0.3750000   0.1250000   0.3750000), wk =   0.0625000
        k(   26) = (   0.3750000  -0.3750000   0.1250000), wk =   0.0625000
        k(   27) = (  -0.3750000  -0.3750000  -0.1250000), wk =   0.0625000
        k(   28) = (   0.3750000   0.3750000  -0.1250000), wk =   0.0625000
        k(   29) = (  -0.3750000   0.3750000   0.1250000), wk =   0.0625000
        k(   30) = (  -0.3750000  -0.3750000   0.3750000), wk =   0.0625000
        k(   31) = (  -0.3750000   0.3750000  -0.3750000), wk =   0.0625000
        k(   32) = (   0.3750000  -0.3750000  -0.3750000), wk =   0.0625000

     Dense  grid:  1061107 G-vectors     FFT dimensions: ( 128, 128, 128)

     Estimated max dynamical RAM per process >       6.82 GB

     Estimated total dynamical RAM >      27.27 GB

     Initial potential from superposition of free atoms

     starting charge  351.69472, renormalised to  352.00000
     Starting wfcs are  208 randomized atomic wfcs

     total cpu time spent up to now is       18.0 secs

     Self-consistent Calculation

     iteration #  1     ecut=    70.00 Ry     beta= 0.70
     Davidson diagonalization with overlap
     ethr =  1.00E-02,  avg # of iterations =  2.0

     Threshold (ethr) on eigenvalues was too large:
     Diagonalizing with lowered threshold

     Davidson diagonalization with overlap
     ethr =  2.22E-04,  avg # of iterations =  4.0

     total cpu time spent up to now is       39.0 secs

     total energy              =   -2256.00159920 Ry
     estimated scf accuracy    <       0.68376365 Ry

     iteration #  2     ecut=    70.00 Ry     beta= 0.70
     Davidson diagonalization with overlap
     ethr =  1.94E-04,  avg # of iterations =  3.3

     total cpu time spent up to now is       52.0 secs

     total energy              =   -2256.21254168 Ry
     estimated scf accuracy    <       0.31749176 Ry

     iteration #  3     ecut=    70.00 Ry     beta= 0.70
     Davidson diagonalization with overlap
     ethr =  9.02E-05,  avg # of iterations =  2.8

     total cpu time spent up to now is       63.8 secs

     total energy              =   -2256.27409235 Ry
     estimated scf accuracy    <       0.01961396 Ry

     iteration #  4     ecut=    70.00 Ry     beta= 0.70
     Davidson diagonalization with overlap
     ethr =  5.57E-06,  avg # of iterations =  4.1

     total cpu time spent up to now is       77.1 secs

     total energy              =   -2256.28121504 Ry
     estimated scf accuracy    <       0.00563413 Ry

     iteration #  5     ecut=    70.00 Ry     beta= 0.70
     Davidson diagonalization with overlap
     ethr =  1.60E-06,  avg # of iterations =  3.1

     total cpu time spent up to now is       89.1 secs

     total energy              =   -2256.28229995 Ry
     estimated scf accuracy    <       0.00119728 Ry

     iteration #  6     ecut=    70.00 Ry     beta= 0.70
     Davidson diagonalization with overlap
     ethr =  3.40E-07,  avg # of iterations =  3.5

     total cpu time spent up to now is      101.5 secs

     total energy              =   -2256.28252093 Ry
     estimated scf accuracy    <       0.00014684 Ry

     iteration #  7     ecut=    70.00 Ry     beta= 0.70
     Davidson diagonalization with overlap
     ethr =  4.17E-08,  avg # of iterations =  5.2

     total cpu time spent up to now is      115.8 secs

     total energy              =   -2256.28258014 Ry
     estimated scf accuracy    <       0.00001911 Ry

     iteration #  8     ecut=    70.00 Ry     beta= 0.70
     Davidson diagonalization with overlap
     ethr =  5.43E-09,  avg # of iterations =  4.0

     total cpu time spent up to now is      130.1 secs

     total energy              =   -2256.28258847 Ry
     estimated scf accuracy    <       0.00000415 Ry

     iteration #  9     ecut=    70.00 Ry     beta= 0.70
     Davidson diagonalization with overlap
     ethr =  1.18E-09,  avg # of iterations =  4.1

     total cpu time spent up to now is      143.9 secs

     total energy              =   -2256.28258985 Ry
     estimated scf accuracy    <       0.00000088 Ry

     iteration # 10     ecut=    70.00 Ry     beta= 0.70
     Davidson diagonalization with overlap
     ethr =  2.51E-10,  avg # of iterations =  3.6

     total cpu time spent up to now is      157.6 secs

     total energy              =   -2256.28259015 Ry
     estimated scf accuracy    <       0.00000018 Ry

     iteration # 11     ecut=    70.00 Ry     beta= 0.70
     Davidson diagonalization with overlap
     ethr =  5.07E-11,  avg # of iterations =  4.3

     total cpu time spent up to now is      171.9 secs

     total energy              =   -2256.28259022 Ry
     estimated scf accuracy    <       0.00000003 Ry

     iteration # 12     ecut=    70.00 Ry     beta= 0.70
     Davidson diagonalization with overlap
     ethr =  7.62E-12,  avg # of iterations =  6.1

     total cpu time spent up to now is      189.2 secs

     total energy              =   -2256.28259024 Ry
     estimated scf accuracy    <       0.00000001 Ry

     iteration # 13     ecut=    70.00 Ry     beta= 0.70
     Davidson diagonalization with overlap
     ethr =  3.22E-12,  avg # of iterations =  3.3

     total cpu time spent up to now is      201.9 secs

     total energy              =   -2256.28259024 Ry
     estimated scf accuracy    <          8.7E-10 Ry

     iteration # 14     ecut=    70.00 Ry     beta= 0.70
     Davidson diagonalization with overlap
     ethr =  2.46E-13,  avg # of iterations =  5.9

     total cpu time spent up to now is      219.3 secs

     total energy              =   -2256.28259024 Ry
     estimated scf accuracy    <          3.3E-10 Ry

     iteration # 15     ecut=    70.00 Ry     beta= 0.70
     Davidson diagonalization with overlap
     ethr =  1.00E-13,  avg # of iterations =  3.4

     total cpu time spent up to now is      231.4 secs

     End of self-consistent calculation

          k = 0.1250 0.1250 0.1250 (132670 PWs)   bands (ev):

   -18.4448 -18.4342 -18.4265 -18.4242 -18.4204 -18.4147 -18.4022 -18.3704
   -18.3555 -18.3389 -18.3318 -18.3289 -18.3257 -18.3247 -18.3181 -18.3129
   -18.3108 -18.3091 -18.3046 -18.3019 -18.2944 -18.2911 -18.2843 -18.2830
   -18.2759 -18.2732 -18.2715 -18.2667 -18.2649 -18.2631 -18.2544 -18.2541
   -18.2527 -18.2499 -18.2367 -18.2314 -18.2280 -18.1392 -18.1370 -18.1333
   -18.1232 -18.1197 -18.1150 -18.1113 -18.1083 -18.1040 -18.1004 -18.0149
    -9.5840  -9.5010  -9.3493  -9.2551  -9.2090  -9.1629  -9.1185  -9.0339
    -9.0007  -8.9495  -8.9255  -8.9164  -8.9003  -8.8773  -8.8640  -8.8458
    -8.7866  -8.7728  -8.7433  -8.6945  -8.6581  -8.6174  -8.5199  -8.4487
    -5.2289  -5.2232  -5.2102  -5.1847  -5.1766  -5.1611  -5.1563  -5.1482
    -5.1376  -5.1281  -5.1218  -5.1053  -5.1017  -5.0977  -5.0892  -5.0548
    -5.0402  -5.0273  -5.0223  -5.0216  -5.0120  -4.8816  -4.8432  -4.8128
    -4.4520  -3.9798  -3.9531  -3.9061  -3.4390  -3.3941  -3.3604  -2.7919
    -0.7547  -0.7047  -0.6704  -0.6428  -0.5485  -0.5324  -0.5192  -0.4433
    -0.4003  -0.3764  -0.3068  -0.2368   0.4546   0.4596   0.4850   0.5715
     0.6035   0.6379   0.6905   0.7235   0.7792   0.8285   0.8626   0.9289
     0.9473   0.9638   1.0265   1.0855   1.0988   1.1274   1.1452   1.1813
     1.2106   1.2218   1.2593   1.2917   1.3068   1.3358   1.3403   1.3614
     1.3718   1.3796   1.4162   1.4475   1.4681   1.4995   1.5130   1.5276
     1.5500   1.5583   1.5859   1.5990   1.6478   1.6598   1.6958   1.7292
     1.7564   1.8174   1.8687   1.9200   1.9719   2.0079   2.0680   2.1071
     2.1755   2.1887   2.2215   2.2567   2.5399   2.6510   2.7782   3.1013

          k = 0.1250 0.1250 0.3750 (132608 PWs)   bands (ev):

   -18.4448 -18.4342 -18.4265 -18.4242 -18.4204 -18.4147 -18.4022 -18.3704
   -18.3555 -18.3389 -18.3318 -18.3289 -18.3257 -18.3247 -18.3181 -18.3129
   -18.3108 -18.3091 -18.3046 -18.3019 -18.2944 -18.2911 -18.2843 -18.2830
   -18.2759 -18.2732 -18.2715 -18.2667 -18.2649 -18.2631 -18.2544 -18.2541
   -18.2527 -18.2499 -18.2367 -18.2314 -18.2280 -18.1392 -18.1370 -18.1333
   -18.1232 -18.1197 -18.1150 -18.1113 -18.1083 -18.1040 -18.1004 -18.0149
    -9.5765  -9.5098  -9.3317  -9.2534  -9.2254  -9.1742  -9.1171  -9.0392
    -9.0130  -8.9517  -8.9382  -8.9099  -8.8930  -8.8771  -8.8563  -8.8203
    -8.7831  -8.7629  -8.7418  -8.7028  -8.6601  -8.6241  -8.5237  -8.4493
    -5.2288  -5.2230  -5.2102  -5.1846  -5.1763  -5.1609  -5.1559  -5.1482
    -5.1378  -5.1277  -5.1225  -5.1056  -5.1020  -5.0976  -5.0889  -5.0548
    -5.0403  -5.0274  -5.0225  -5.0216  -5.0121  -4.8822  -4.8434  -4.8126
    -4.3331  -4.1316  -3.8427  -3.7927  -3.6025  -3.5490  -3.2433  -2.9891
    -0.7340  -0.6809  -0.6559  -0.5630  -0.5145  -0.4877  -0.4351  -0.4034
    -0.1621  -0.0934  -0.0209   0.0390   0.3022   0.4632   0.4877   0.5094
     0.5343   0.5712   0.5868   0.6606   0.6794   0.7139   0.7701   0.8021
     0.8427   0.8752   0.9398   1.0091   1.0284   1.0827   1.1292   1.1622
     1.1874   1.2501   1.2609   1.2785   1.2892   1.3238   1.3571   1.3639
     1.3806   1.4060   1.4272   1.4640   1.4780   1.4928   1.5280   1.5390
     1.5508   1.5749   1.6081   1.6169   1.6548   1.6806   1.6885   1.7210
     1.7700   1.8068   1.8741   1.9167   1.9587   1.9715   2.0505   2.0618
     2.1055   2.1488   2.1795   2.2312   2.3806   2.4422   2.7723   2.8707

          k = 0.1250 0.3750 0.3750 (132616 PWs)   bands (ev):

   -18.4448 -18.4342 -18.4265 -18.4242 -18.4204 -18.4147 -18.4022 -18.3704
   -18.3555 -18.3389 -18.3318 -18.3289 -18.3256 -18.3247 -18.3181 -18.3129
   -18.3108 -18.3091 -18.3046 -18.3019 -18.2944 -18.2911 -18.2843 -18.2830
   -18.2759 -18.2732 -18.2715 -18.2667 -18.2649 -18.2631 -18.2544 -18.2541
   -18.2527 -18.2499 -18.2367 -18.2314 -18.2280 -18.1392 -18.1370 -18.1333
   -18.1232 -18.1197 -18.1150 -18.1113 -18.1083 -18.1040 -18.1004 -18.0149
    -9.5740  -9.5073  -9.3319  -9.2453  -9.2304  -9.1743  -9.1317  -9.0583
    -9.0146  -8.9687  -8.9405  -8.8963  -8.8847  -8.8542  -8.8383  -8.8190
    -8.7818  -8.7708  -8.7334  -8.7154  -8.6598  -8.6284  -8.5248  -8.4508
    -5.2287  -5.2230  -5.2104  -5.1843  -5.1761  -5.1599  -5.1566  -5.1489
    -5.1379  -5.1278  -5.1220  -5.1055  -5.1020  -5.0977  -5.0893  -5.0548
    -5.0405  -5.0276  -5.0225  -5.0215  -5.0120  -4.8821  -4.8435  -4.8123
    -4.2231  -4.0201  -3.9692  -3.7671  -3.6655  -3.4811  -3.4067  -3.1729
    -0.7180  -0.6436  -0.5334  -0.4776  -0.3452  -0.2506  -0.1971  -0.1499
    -0.0856  -0.0443   0.0688   0.0903   0.2602   0.3723   0.4210   0.4455
     0.5070   0.5299   0.5587   0.5938   0.6325   0.6486   0.6781   0.7337
     0.7861   0.8706   0.9076   0.9414   0.9648   1.0162   1.0262   1.0742
     1.1605   1.1802   1.2211   1.2414   1.2906   1.3035   1.3292   1.3633
     1.3824   1.3981   1.4178   1.4411   1.4574   1.4768   1.5036   1.5440
     1.5729   1.5929   1.6429   1.6617   1.6857   1.7202   1.7416   1.7589
     1.7991   1.8357   1.8579   1.8981   1.9241   1.9392   1.9640   2.0297
     2.0578   2.0906   2.1564   2.1684   2.2336   2.3389   2.5168   2.6420

          k = 0.3750 0.3750 0.3750 (132612 PWs)   bands (ev):

   -18.4448 -18.4342 -18.4265 -18.4242 -18.4204 -18.4147 -18.4022 -18.3704
   -18.3555 -18.3389 -18.3318 -18.3289 -18.3256 -18.3247 -18.3181 -18.3129
   -18.3108 -18.3091 -18.3046 -18.3019 -18.2944 -18.2911 -18.2844 -18.2830
   -18.2759 -18.2732 -18.2715 -18.2667 -18.2649 -18.2631 -18.2544 -18.2541
   -18.2527 -18.2499 -18.2367 -18.2314 -18.2280 -18.1392 -18.1370 -18.1333
   -18.1232 -18.1197 -18.1150 -18.1113 -18.1083 -18.1040 -18.1004 -18.0149
    -9.5716  -9.5043  -9.3318  -9.2601  -9.2090  -9.1711  -9.1530  -9.0619
    -9.0289  -8.9731  -8.9369  -8.8927  -8.8767  -8.8522  -8.8298  -8.8129
    -8.7778  -8.7715  -8.7311  -8.7150  -8.6642  -8.6279  -8.5290  -8.4519
    -5.2286  -5.2235  -5.2107  -5.1842  -5.1760  -5.1603  -5.1571  -5.1482
    -5.1376  -5.1278  -5.1217  -5.1050  -5.1024  -5.0980  -5.0890  -5.0548
    -5.0408  -5.0275  -5.0225  -5.0214  -5.0120  -4.8817  -4.8431  -4.8116
    -4.1164  -3.9239  -3.8815  -3.8257  -3.6608  -3.6052  -3.5517  -3.3493
    -0.4898  -0.4129  -0.3445  -0.3244  -0.2454  -0.1707  -0.1339  -0.1219
    -0.0736   0.0126   0.0841   0.1860   0.2570   0.3054   0.3725   0.4343
     0.4467   0.4948   0.5204   0.5434   0.5690   0.6071   0.6440   0.6727
     0.8015   0.8770   0.8916   0.9096   0.9382   1.0157   1.0327   1.0526
     1.0659   1.1177   1.1478   1.1829   1.2258   1.2435   1.2562   1.2831
     1.3426   1.3633   1.3996   1.4235   1.4482   1.4914   1.5167   1.5597
     1.6005   1.6347   1.6619   1.6766   1.6995   1.7355   1.7702   1.7796
     1.7906   1.8080   1.8581   1.8680   1.9144   1.9211   1.9742   1.9985
     2.0439   2.0561   2.0935   2.1081   2.1586   2.1868   2.2710   2.3893

          k =-0.1250-0.1250 0.1250 (132670 PWs)   bands (ev):

   -18.4448 -18.4342 -18.4265 -18.4242 -18.4204 -18.4147 -18.4022 -18.3704
   -18.3555 -18.3389 -18.3318 -18.3289 -18.3257 -18.3247 -18.3181 -18.3129
   -18.3108 -18.3091 -18.3046 -18.3019 -18.2944 -18.2911 -18.2843 -18.2830
   -18.2759 -18.2732 -18.2715 -18.2667 -18.2649 -18.2631 -18.2544 -18.2541
   -18.2527 -18.2499 -18.2367 -18.2314 -18.2280 -18.1392 -18.1370 -18.1333
   -18.1232 -18.1197 -18.1150 -18.1113 -18.1083 -18.1040 -18.1004 -18.0149
    -9.5826  -9.5041  -9.3486  -9.2445  -9.2147  -9.1741  -9.1130  -9.0261
    -8.9998  -8.9560  -8.9350  -8.9117  -8.9003  -8.8708  -8.8665  -8.8471
    -8.7845  -8.7717  -8.7447  -8.6940  -8.6602  -8.6160  -8.5198  -8.4489
    -5.2289  -5.2232  -5.2101  -5.1847  -5.1765  -5.1610  -5.1566  -5.1481
    -5.1377  -5.1282  -5.1220  -5.1053  -5.1018  -5.0975  -5.0891  -5.0548
    -5.0402  -5.0273  -5.0223  -5.0215  -5.0121  -4.8816  -4.8433  -4.8128
    -4.4500  -3.9920  -3.9581  -3.8905  -3.4431  -3.4078  -3.3386  -2.7970
    -0.7462  -0.6886  -0.6810  -0.6101  -0.5845  -0.5594  -0.5054  -0.4527
    -0.4074  -0.3737  -0.2856  -0.2385   0.4444   0.4596   0.5004   0.5667
     0.5995   0.6368   0.6849   0.7243   0.7748   0.8268   0.8657   0.9108
     0.9570   0.9831   1.0533   1.0816   1.1064   1.1530   1.1547   1.1624
     1.1943   1.2233   1.2468   1.2680   1.2907   1.3246   1.3364   1.3632
     1.3719   1.3928   1.4255   1.4477   1.4697   1.4812   1.4999   1.5151
     1.5517   1.5737   1.5821   1.6039   1.6563   1.6662   1.7041   1.7358
     1.7609   1.8406   1.8479   1.9137   1.9746   2.0220   2.0656   2.1220
     2.1324   2.1963   2.2183   2.2873   2.5432   2.6402   2.7683   3.0999

          k =-0.1250 0.1250-0.1250 (132670 PWs)   bands (ev):

   -18.4448 -18.4342 -18.4265 -18.4242 -18.4204 -18.4147 -18.4022 -18.3704
   -18.3555 -18.3389 -18.3318 -18.3289 -18.3257 -18.3247 -18.3181 -18.3129
   -18.3108 -18.3091 -18.3046 -18.3019 -18.2944 -18.2911 -18.2843 -18.2830
   -18.2759 -18.2732 -18.2715 -18.2667 -18.2649 -18.2631 -18.2544 -18.2541
   -18.2527 -18.2499 -18.2367 -18.2314 -18.2280 -18.1392 -18.1370 -18.1333
   -18.1232 -18.1197 -18.1150 -18.1113 -18.1083 -18.1040 -18.1004 -18.0149
    -9.5839  -9.5010  -9.3486  -9.2599  -9.2049  -9.1626  -9.1184  -9.0270
    -9.0030  -8.9556  -8.9357  -8.9106  -8.9015  -8.8731  -8.8628  -8.8422
    -8.7888  -8.7709  -8.7457  -8.6944  -8.6586  -8.6168  -8.5196  -8.4488
    -5.2290  -5.2232  -5.2102  -5.1847  -5.1762  -5.1612  -5.1573  -5.1476
    -5.1376  -5.1282  -5.1220  -5.1053  -5.1015  -5.0977  -5.0890  -5.0549
    -5.0402  -5.0272  -5.0223  -5.0215  -5.0121  -4.8816  -4.8433  -4.8127
    -4.4512  -3.9908  -3.9442  -3.9054  -3.4445  -3.3954  -3.3499  -2.7959
    -0.7364  -0.7011  -0.6563  -0.6381  -0.5945  -0.5420  -0.5101  -0.4551
    -0.4083  -0.3694  -0.2924  -0.2295   0.4581   0.4610   0.4848   0.5686
     0.6027   0.6417   0.6818   0.7230   0.7677   0.8380   0.8628   0.8855
     0.9607   0.9983   1.0436   1.0830   1.1219   1.1391   1.1537   1.1764
     1.2044   1.2140   1.2458   1.2599   1.2831   1.3122   1.3409   1.3615
     1.3746   1.3954   1.4292   1.4566   1.4691   1.4864   1.5054   1.5189
     1.5569   1.5709   1.5968   1.6159   1.6369   1.6590   1.6861   1.7272
     1.7620   1.8229   1.8604   1.9216   1.9826   2.0143   2.0636   2.1186
     2.1524   2.2018   2.2213   2.2670   2.5523   2.6648   2.7367   3.1011

          k = 0.1250-0.1250-0.1250 (132670 PWs)   bands (ev):

   -18.4448 -18.4342 -18.4265 -18.4242 -18.4204 -18.4147 -18.4022 -18.3704
   -18.3555 -18.3389 -18.3318 -18.3289 -18.3257 -18.3247 -18.3181 -18.3129
   -18.3108 -18.3091 -18.3046 -18.3019 -18.2944 -18.2911 -18.2843 -18.2830
   -18.2759 -18.2732 -18.2715 -18.2667 -18.2649 -18.2631 -18.2544 -18.2541
   -18.2527 -18.2499 -18.2367 -18.2314 -18.2280 -18.1392 -18.1370 -18.1333
   -18.1232 -18.1197 -18.1150 -18.1113 -18.1083 -18.1040 -18.1004 -18.0149
    -9.5825  -9.5041  -9.3489  -9.2475  -9.2116  -9.1702  -9.1159  -9.0308
    -9.0015  -8.9517  -8.9257  -8.9162  -8.9008  -8.8791  -8.8602  -8.8479
    -8.7860  -8.7692  -8.7468  -8.6935  -8.6596  -8.6165  -8.5197  -8.4489
    -5.2289  -5.2232  -5.2102  -5.1847  -5.1764  -5.1611  -5.1573  -5.1475
    -5.1376  -5.1281  -5.1216  -5.1053  -5.1019  -5.0977  -5.0892  -5.0548
    -5.0403  -5.0273  -5.0223  -5.0215  -5.0120  -4.8815  -4.8433  -4.8129
    -4.4499  -3.9893  -3.9562  -3.8972  -3.4353  -3.4044  -3.3487  -2.7960
    -0.7425  -0.6905  -0.6686  -0.6532  -0.5635  -0.5391  -0.5169  -0.4504
    -0.4195  -0.3580  -0.3004  -0.2317   0.4467   0.4574   0.4944   0.5687
     0.6011   0.6401   0.6845   0.7261   0.7863   0.8302   0.8631   0.8966
     0.9615   1.0167   1.0344   1.0641   1.1069   1.1270   1.1554   1.1740
     1.1986   1.2242   1.2376   1.2703   1.2902   1.3155   1.3305   1.3585
     1.3800   1.3979   1.4317   1.4592   1.4815   1.4871   1.5150   1.5188
     1.5497   1.5676   1.5926   1.6100   1.6446   1.6610   1.6928   1.7263
     1.7602   1.8297   1.8496   1.9054   1.9792   2.0143   2.0621   2.1048
     2.1676   2.1982   2.2216   2.2842   2.5419   2.6356   2.7795   3.0937

          k =-0.1250-0.1250 0.3750 (132608 PWs)   bands (ev):

   -18.4448 -18.4342 -18.4265 -18.4242 -18.4204 -18.4147 -18.4022 -18.3704
   -18.3555 -18.3389 -18.3318 -18.3289 -18.3257 -18.3247 -18.3181 -18.3129
   -18.3108 -18.3091 -18.3046 -18.3019 -18.2944 -18.2911 -18.2843 -18.2830
   -18.2759 -18.2732 -18.2715 -18.2667 -18.2649 -18.2631 -18.2544 -18.2541
   -18.2527 -18.2499 -18.2367 -18.2314 -18.2280 -18.1392 -18.1370 -18.1333
   -18.1232 -18.1197 -18.1150 -18.1113 -18.1083 -18.1040 -18.1004 -18.0149
    -9.5746  -9.5133  -9.3306  -9.2480  -9.2166  -9.1953  -9.1117  -9.0279
    -9.0163  -8.9573  -8.9429  -8.9119  -8.8915  -8.8716  -8.8569  -8.8226
    -8.7805  -8.7615  -8.7432  -8.7023  -8.6627  -8.6224  -8.5235  -8.4495
    -5.2288  -5.2230  -5.2102  -5.1845  -5.1762  -5.1608  -5.1562  -5.1480
    -5.1378  -5.1277  -5.1227  -5.1056  -5.1021  -5.0974  -5.0888  -5.0549
    -5.0403  -5.0275  -5.0225  -5.0215  -5.0121  -4.8822  -4.8434  -4.8126
    -4.3267  -4.1437  -3.8439  -3.7787  -3.6106  -3.5538  -3.2265  -3.0008
    -0.7261  -0.6880  -0.6543  -0.5471  -0.5245  -0.4769  -0.4595  -0.3966
    -0.1558  -0.0942  -0.0192   0.0292   0.3118   0.4393   0.4776   0.5022
     0.5539   0.5863   0.6013   0.6619   0.6742   0.7054   0.7537   0.7846
     0.8637   0.8904   0.9191   1.0045   1.0373   1.1062   1.1422   1.1802
     1.2042   1.2239   1.2557   1.2622   1.3069   1.3141   1.3476   1.3578
     1.3798   1.3929   1.4135   1.4485   1.4753   1.4997   1.5165   1.5343
     1.5579   1.5801   1.6057   1.6357   1.6621   1.6696   1.7075   1.7315
     1.7540   1.8335   1.8830   1.8967   1.9560   1.9792   2.0212   2.0695
     2.0967   2.1631   2.2020   2.2418   2.3841   2.4150   2.7755   2.8649

          k =-0.1250 0.1250-0.3750 (132608 PWs)   bands (ev):

   -18.4448 -18.4342 -18.4265 -18.4242 -18.4204 -18.4147 -18.4022 -18.3704
   -18.3555 -18.3389 -18.3318 -18.3289 -18.3257 -18.3247 -18.3181 -18.3129
   -18.3108 -18.3091 -18.3046 -18.3019 -18.2944 -18.2911 -18.2843 -18.2830
   -18.2759 -18.2732 -18.2715 -18.2667 -18.2649 -18.2631 -18.2544 -18.2541
   -18.2527 -18.2499 -18.2367 -18.2314 -18.2280 -18.1392 -18.1370 -18.1333
   -18.1232 -18.1197 -18.1150 -18.1113 -18.1083 -18.1040 -18.1004 -18.0149
    -9.5764  -9.5098  -9.3309  -9.2612  -9.2151  -9.1797  -9.1142  -9.0296
    -9.0199  -8.9567  -8.9437  -8.9134  -8.8834  -8.8717  -8.8604  -8.8191
    -8.7840  -8.7616  -8.7441  -8.7030  -8.6607  -8.6231  -8.5234  -8.4496
    -5.2289  -5.2230  -5.2102  -5.1846  -5.1760  -5.1610  -5.1568  -5.1476
    -5.1378  -5.1277  -5.1228  -5.1056  -5.1018  -5.0976  -5.0887  -5.0550
    -5.0402  -5.0274  -5.0225  -5.0215  -5.0121  -4.8822  -4.8434  -4.8126
    -4.3311  -4.1344  -3.8451  -3.7915  -3.6057  -3.5442  -3.2363  -2.9966
    -0.7223  -0.6795  -0.6389  -0.5774  -0.5381  -0.4771  -0.4595  -0.3869
    -0.1559  -0.0924  -0.0132   0.0312   0.3071   0.4521   0.4876   0.5151
     0.5312   0.5743   0.5904   0.6542   0.6788   0.7121   0.7657   0.7944
     0.8626   0.8924   0.9162   0.9922   1.0475   1.0953   1.1277   1.1675
     1.2107   1.2240   1.2603   1.2729   1.2844   1.3238   1.3418   1.3772
     1.3852   1.4075   1.4216   1.4571   1.4772   1.4845   1.5014   1.5375
     1.5538   1.5826   1.6115   1.6307   1.6494   1.6643   1.6962   1.7335
     1.7623   1.8257   1.8742   1.9225   1.9605   1.9749   2.0358   2.0717
     2.1169   2.1449   2.1883   2.2214   2.4037   2.4402   2.7425   2.8696

          k = 0.1250-0.1250-0.3750 (132608 PWs)   bands (ev):

   -18.4448 -18.4342 -18.4265 -18.4242 -18.4204 -18.4147 -18.4022 -18.3704
   -18.3555 -18.3389 -18.3318 -18.3289 -18.3257 -18.3247 -18.3181 -18.3129
   -18.3108 -18.3091 -18.3046 -18.3019 -18.2944 -18.2911 -18.2843 -18.2830
   -18.2759 -18.2732 -18.2715 -18.2667 -18.2649 -18.2631 -18.2544 -18.2541
   -18.2527 -18.2499 -18.2367 -18.2314 -18.2280 -18.1392 -18.1370 -18.1333
   -18.1232 -18.1197 -18.1150 -18.1113 -18.1083 -18.1040 -18.1004 -18.0149
    -9.5745  -9.5133  -9.3316  -9.2477  -9.2162  -9.1935  -9.1113  -9.0348
    -9.0158  -8.9560  -8.9378  -8.9131  -8.8865  -8.8746  -8.8577  -8.8247
    -8.7799  -8.7611  -8.7448  -8.7021  -8.6614  -8.6230  -8.5234  -8.4497
    -5.2288  -5.2230  -5.2102  -5.1845  -5.1761  -5.1610  -5.1568  -5.1475
    -5.1378  -5.1277  -5.1224  -5.1055  -5.1022  -5.0976  -5.0889  -5.0548
    -5.0403  -5.0274  -5.0225  -5.0215  -5.0121  -4.8821  -4.8435  -4.8127
    -4.3276  -4.1395  -3.8492  -3.7846  -3.6094  -3.5415  -3.2356  -2.9973
    -0.7227  -0.6777  -0.6451  -0.5844  -0.5200  -0.4908  -0.4532  -0.3828
    -0.1591  -0.0904  -0.0236   0.0369   0.3070   0.4517   0.4704   0.5185
     0.5563   0.5760   0.5932   0.6582   0.6817   0.7076   0.7708   0.7758
     0.8527   0.8834   0.9416   1.0004   1.0386   1.0766   1.1327   1.1731
     1.2160   1.2269   1.2522   1.2673   1.2919   1.3152   1.3439   1.3603
     1.3734   1.4137   1.4369   1.4502   1.4750   1.5094   1.5277   1.5331
     1.5546   1.5758   1.6150   1.6307   1.6524   1.6685   1.6824   1.7186
     1.7754   1.8241   1.8761   1.8917   1.9566   1.9869   2.0357   2.0638
     2.0993   2.1585   2.1905   2.2600   2.3860   2.4210   2.7749   2.8528

          k = 0.3750-0.1250 0.1250 (132608 PWs)   bands (ev):

   -18.4448 -18.4342 -18.4265 -18.4242 -18.4204 -18.4147 -18.4022 -18.3704
   -18.3555 -18.3389 -18.3318 -18.3289 -18.3257 -18.3247 -18.3181 -18.3129
   -18.3108 -18.3091 -18.3046 -18.3019 -18.2944 -18.2911 -18.2844 -18.2830
   -18.2759 -18.2732 -18.2715 -18.2667 -18.2649 -18.2631 -18.2544 -18.2541
   -18.2527 -18.2499 -18.2367 -18.2314 -18.2280 -18.1392 -18.1370 -18.1333
   -18.1232 -18.1197 -18.1150 -18.1113 -18.1083 -18.1040 -18.1004 -18.0149
    -9.5767  -9.5058  -9.3493  -9.2614  -9.1959  -9.1588  -9.1400  -9.0330
    -9.0046  -8.9548  -8.9419  -8.9149  -8.8965  -8.8742  -8.8626  -8.8294
    -8.7747  -8.7663  -8.7453  -8.6976  -8.6566  -8.6175  -8.5257  -8.4512
    -5.2289  -5.2234  -5.2102  -5.1841  -5.1755  -5.1600  -5.1584  -5.1480
    -5.1374  -5.1280  -5.1220  -5.1050  -5.1020  -5.0984  -5.0890  -5.0552
    -5.0407  -5.0271  -5.0225  -5.0215  -5.0120  -4.8814  -4.8431  -4.8120
    -4.3258  -4.1180  -3.8505  -3.8251  -3.5756  -3.5405  -3.2581  -3.0155
    -0.6711  -0.6374  -0.6182  -0.5876  -0.5340  -0.4649  -0.4473  -0.3794
    -0.2273  -0.1447  -0.0361   0.0812   0.3815   0.4593   0.4973   0.5225
     0.5343   0.5791   0.5903   0.6209   0.6767   0.7121   0.7295   0.8044
     0.8207   0.9216   0.9774   1.0229   1.0383   1.0947   1.1165   1.1548
     1.1910   1.2098   1.2209   1.2377   1.2586   1.2973   1.3325   1.3734
     1.3819   1.3919   1.4266   1.4388   1.4589   1.4858   1.5143   1.5400
     1.5777   1.5971   1.6141   1.6344   1.6536   1.6700   1.7136   1.7388
     1.7800   1.8440   1.8800   1.9009   1.9285   1.9824   2.0377   2.0686
     2.0952   2.1377   2.2058   2.2329   2.3820   2.4523   2.6804   2.8449

          k =-0.3750-0.1250-0.1250 (132608 PWs)   bands (ev):

   -18.4448 -18.4342 -18.4265 -18.4242 -18.4204 -18.4147 -18.4022 -18.3704
   -18.3555 -18.3389 -18.3318 -18.3289 -18.3257 -18.3247 -18.3181 -18.3129
   -18.3108 -18.3091 -18.3046 -18.3019 -18.2944 -18.2911 -18.2844 -18.2830
   -18.2759 -18.2732 -18.2715 -18.2667 -18.2649 -18.2631 -18.2544 -18.2541
   -18.2527 -18.2499 -18.2367 -18.2314 -18.2280 -18.1392 -18.1370 -18.1333
   -18.1232 -18.1197 -18.1150 -18.1113 -18.1083 -18.1040 -18.1004 -18.0149
    -9.5767  -9.5058  -9.3502  -9.2563  -9.1978  -9.1659  -9.1362  -9.0366
    -9.0048  -8.9502  -8.9312  -8.9177  -8.9003  -8.8794  -8.8591  -8.8328
    -8.7747  -8.7685  -8.7416  -8.6978  -8.6566  -8.6176  -8.5259  -8.4511
    -5.2289  -5.2235  -5.2103  -5.1841  -5.1759  -5.1603  -5.1569  -5.1486
    -5.1375  -5.1280  -5.1218  -5.1049  -5.1023  -5.0984  -5.0891  -5.0551
    -5.0406  -5.0272  -5.0225  -5.0215  -5.0120  -4.8814  -4.8430  -4.8120
    -4.3280  -4.1160  -3.8540  -3.8152  -3.5737  -3.5518  -3.2598  -3.0100
    -0.6856  -0.6619  -0.6114  -0.5540  -0.5345  -0.4888  -0.4017  -0.3901
    -0.2453  -0.1270  -0.0445   0.0727   0.3744   0.4653   0.4905   0.5312
     0.5455   0.5684   0.5946   0.6315   0.6693   0.7168   0.7314   0.7821
     0.8377   0.9124   0.9713   1.0154   1.0468   1.0841   1.1211   1.1472
     1.1845   1.1984   1.2311   1.2750   1.2995   1.3120   1.3197   1.3552
     1.3755   1.3967   1.4248   1.4405   1.4638   1.4863   1.5201   1.5303
     1.5619   1.5805   1.6175   1.6262   1.6601   1.6693   1.7113   1.7590
     1.7733   1.8366   1.8619   1.9066   1.9394   1.9706   2.0297   2.0669
     2.0974   2.1363   2.2157   2.2355   2.3708   2.4574   2.6867   2.8522

          k = 0.3750 0.1250-0.1250 (132608 PWs)   bands (ev):

   -18.4448 -18.4342 -18.4265 -18.4242 -18.4204 -18.4147 -18.4022 -18.3704
   -18.3555 -18.3389 -18.3318 -18.3289 -18.3257 -18.3247 -18.3181 -18.3129
   -18.3108 -18.3091 -18.3046 -18.3019 -18.2944 -18.2911 -18.2844 -18.2830
   -18.2759 -18.2732 -18.2715 -18.2667 -18.2649 -18.2631 -18.2544 -18.2541
   -18.2527 -18.2499 -18.2367 -18.2314 -18.2280 -18.1392 -18.1370 -18.1333
   -18.1232 -18.1197 -18.1150 -18.1113 -18.1083 -18.1040 -18.1004 -18.0149
    -9.5749  -9.5093  -9.3490  -9.2473  -9.2060  -9.1737  -9.1294  -9.0318
    -9.0019  -8.9557  -8.9417  -8.9154  -8.8944  -8.8757  -8.8636  -8.8329
    -8.7722  -8.7667  -8.7436  -8.6974  -8.6583  -8.6167  -8.5258  -8.4512
    -5.2288  -5.2235  -5.2102  -5.1840  -5.1759  -5.1601  -5.1573  -5.1486
    -5.1375  -5.1280  -5.1220  -5.1050  -5.1023  -5.0981  -5.0891  -5.0551
    -5.0406  -5.0272  -5.0225  -5.0215  -5.0120  -4.8815  -4.8431  -4.8120
    -4.3226  -4.1233  -3.8762  -3.7837  -3.6114  -3.5200  -3.2534  -3.0186
    -0.6790  -0.6412  -0.5982  -0.5873  -0.5469  -0.4720  -0.4180  -0.3984
    -0.2352  -0.1206  -0.0407   0.0720   0.3652   0.4592   0.4860   0.5260
     0.5629   0.5709   0.5924   0.6420   0.6496   0.7016   0.7443   0.7953
     0.8405   0.9250   0.9643   1.0207   1.0552   1.0882   1.1256   1.1416
     1.1733   1.2035   1.2280   1.2545   1.2758   1.3011   1.3268   1.3636
     1.3820   1.4025   1.4190   1.4340   1.4658   1.4873   1.4995   1.5320
     1.5566   1.5798   1.6117   1.6397   1.6597   1.6904   1.7080   1.7837
     1.7933   1.8189   1.8825   1.9022   1.9159   1.9841   2.0329   2.0762
     2.0968   2.1357   2.1709   2.2691   2.3631   2.4626   2.6848   2.8411

          k =-0.3750 0.1250 0.1250 (132608 PWs)   bands (ev):

   -18.4448 -18.4342 -18.4265 -18.4242 -18.4204 -18.4147 -18.4022 -18.3704
   -18.3555 -18.3389 -18.3318 -18.3289 -18.3257 -18.3247 -18.3181 -18.3129
   -18.3108 -18.3091 -18.3046 -18.3019 -18.2944 -18.2911 -18.2844 -18.2830
   -18.2759 -18.2732 -18.2715 -18.2667 -18.2649 -18.2631 -18.2544 -18.2541
   -18.2527 -18.2499 -18.2367 -18.2314 -18.2280 -18.1392 -18.1370 -18.1333
   -18.1232 -18.1197 -18.1150 -18.1113 -18.1083 -18.1040 -18.1004 -18.0149
    -9.5748  -9.5093  -9.3495  -9.2483  -9.2033  -9.1712  -9.1332  -9.0328
    -9.0062  -8.9529  -8.9312  -8.9168  -8.9013  -8.8810  -8.8567  -8.8330
    -8.7740  -8.7657  -8.7449  -8.6967  -8.6582  -8.6167  -8.5256  -8.4513
    -5.2289  -5.2234  -5.2102  -5.1841  -5.1757  -5.1601  -5.1583  -5.1478
    -5.1375  -5.1279  -5.1217  -5.1049  -5.1025  -5.0983  -5.0891  -5.0551
    -5.0407  -5.0272  -5.0225  -5.0214  -5.0120  -4.8814  -4.8431  -4.8121
    -4.3217  -4.1272  -3.8634  -3.7952  -3.5954  -3.5390  -3.2474  -3.0196
    -0.6889  -0.6444  -0.6074  -0.5653  -0.5308  -0.4697  -0.4398  -0.3985
    -0.2263  -0.1377  -0.0323   0.0762   0.3709   0.4587   0.4896   0.5193
     0.5460   0.5610   0.5910   0.6444   0.6722   0.6977   0.7481   0.8140
     0.8274   0.9289   0.9748   1.0056   1.0527   1.0956   1.1196   1.1533
     1.1629   1.1913   1.2288   1.2586   1.2803   1.3107   1.3272   1.3443
     1.3788   1.3989   1.4099   1.4461   1.4675   1.4996   1.5024   1.5383
     1.5726   1.5925   1.6068   1.6386   1.6625   1.6742   1.6979   1.7684
     1.7817   1.8343   1.8727   1.8916   1.9145   1.9732   2.0387   2.0784
     2.0985   2.1411   2.1965   2.2853   2.3578   2.4335   2.6932   2.8441

          k =-0.1250 0.3750 0.1250 (132608 PWs)   bands (ev):

   -18.4448 -18.4342 -18.4265 -18.4242 -18.4204 -18.4147 -18.4022 -18.3704
   -18.3555 -18.3389 -18.3318 -18.3289 -18.3256 -18.3247 -18.3181 -18.3129
   -18.3108 -18.3091 -18.3046 -18.3019 -18.2944 -18.2911 -18.2843 -18.2830
   -18.2759 -18.2732 -18.2715 -18.2667 -18.2649 -18.2631 -18.2544 -18.2541
   -18.2527 -18.2499 -18.2367 -18.2314 -18.2280 -18.1392 -18.1370 -18.1333
   -18.1232 -18.1197 -18.1150 -18.1113 -18.1083 -18.1040 -18.1004 -18.0149
    -9.5796  -9.5018  -9.3477  -9.2487  -9.2049  -9.1768  -9.1347  -9.0391
    -9.0062  -8.9627  -8.9324  -8.9093  -8.8961  -8.8599  -8.8469  -8.8298
    -8.7892  -8.7721  -8.7353  -8.7100  -8.6566  -8.6241  -8.5207  -8.4502
    -5.2288  -5.2231  -5.2104  -5.1843  -5.1758  -5.1598  -5.1579  -5.1481
    -5.1378  -5.1281  -5.1218  -5.1053  -5.1019  -5.0977  -5.0895  -5.0549
    -5.0405  -5.0274  -5.0225  -5.0215  -5.0121  -4.8815  -4.8434  -4.8124
    -4.3321  -4.0951  -3.8871  -3.7970  -3.5628  -3.5521  -3.2841  -2.9999
    -0.7255  -0.6555  -0.6400  -0.6037  -0.5415  -0.4153  -0.3956  -0.3352
    -0.1405  -0.0932  -0.0660   0.0134   0.3657   0.4253   0.4840   0.4993
     0.5486   0.5638   0.5869   0.6364   0.6571   0.6874   0.7503   0.8085
     0.8521   0.8762   0.9244   1.0148   1.0380   1.0832   1.1100   1.1543
     1.1767   1.2447   1.2584   1.2696   1.3000   1.3331   1.3512   1.3711
     1.3830   1.3939   1.4253   1.4491   1.4757   1.4880   1.5221   1.5354
     1.5540   1.5868   1.6109   1.6418   1.6579   1.6894   1.7139   1.7352
     1.7818   1.8131   1.8598   1.8801   1.9096   1.9460   2.0146   2.0554
     2.1144   2.1425   2.2083   2.2650   2.3723   2.4814   2.6678   2.8180

          k =-0.1250-0.3750-0.1250 (132608 PWs)   bands (ev):

   -18.4448 -18.4342 -18.4265 -18.4242 -18.4204 -18.4147 -18.4022 -18.3704
   -18.3555 -18.3389 -18.3318 -18.3289 -18.3256 -18.3247 -18.3181 -18.3129
   -18.3108 -18.3091 -18.3046 -18.3019 -18.2944 -18.2911 -18.2843 -18.2830
   -18.2759 -18.2732 -18.2715 -18.2667 -18.2649 -18.2631 -18.2544 -18.2541
   -18.2527 -18.2499 -18.2367 -18.2314 -18.2280 -18.1392 -18.1370 -18.1333
   -18.1232 -18.1197 -18.1150 -18.1113 -18.1083 -18.1040 -18.1004 -18.0149
    -9.5811  -9.4987  -9.3479  -9.2545  -9.2043  -9.1743  -9.1328  -9.0414
    -9.0054  -8.9564  -8.9360  -8.9120  -8.8948  -8.8584  -8.8486  -8.8323
    -8.7856  -8.7741  -8.7336  -8.7114  -8.6561  -8.6244  -8.5209  -8.4501
    -5.2288  -5.2231  -5.2104  -5.1843  -5.1760  -5.1600  -5.1566  -5.1489
    -5.1378  -5.1281  -5.1220  -5.1052  -5.1018  -5.0978  -5.0894  -5.0549
    -5.0404  -5.0274  -5.0225  -5.0216  -5.0121  -4.8815  -4.8433  -4.8124
    -4.3357  -4.0944  -3.8684  -3.8042  -3.5717  -3.5571  -3.2829  -2.9952
    -0.7380  -0.6662  -0.6301  -0.5958  -0.5355  -0.4206  -0.3965  -0.3222
    -0.1407  -0.0943  -0.0725   0.0110   0.3533   0.4340   0.4725   0.5149
     0.5597   0.5687   0.5915   0.6312   0.6447   0.7034   0.7475   0.8026
     0.8592   0.8792   0.9012   0.9982   1.0304   1.0827   1.1125   1.1391
     1.2188   1.2377   1.2703   1.2775   1.3103   1.3243   1.3344   1.3595
     1.3958   1.4209   1.4333   1.4490   1.4652   1.4876   1.5153   1.5385
     1.5559   1.5757   1.6041   1.6230   1.6535   1.6839   1.7261   1.7347
     1.8024   1.8199   1.8660   1.8809   1.9018   1.9470   2.0110   2.0607
     2.1107   2.1486   2.2080   2.2424   2.3545   2.4883   2.6705   2.8333

          k = 0.1250 0.3750-0.1250 (132608 PWs)   bands (ev):

   -18.4448 -18.4342 -18.4265 -18.4242 -18.4204 -18.4147 -18.4022 -18.3704
   -18.3555 -18.3389 -18.3318 -18.3289 -18.3257 -18.3247 -18.3181 -18.3129
   -18.3108 -18.3091 -18.3046 -18.3019 -18.2944 -18.2911 -18.2843 -18.2830
   -18.2759 -18.2732 -18.2715 -18.2667 -18.2649 -18.2631 -18.2544 -18.2541
   -18.2527 -18.2499 -18.2367 -18.2314 -18.2280 -18.1392 -18.1370 -18.1333
   -18.1232 -18.1197 -18.1150 -18.1113 -18.1083 -18.1040 -18.1004 -18.0149
    -9.5797  -9.5018  -9.3473  -9.2465  -9.2051  -9.1846  -9.1301  -9.0356
    -9.0048  -8.9645  -8.9375  -8.9087  -8.8953  -8.8599  -8.8448  -8.8312
    -8.7873  -8.7740  -8.7329  -8.7112  -8.6577  -8.6232  -8.5208  -8.4502
    -5.2288  -5.2231  -5.2103  -5.1842  -5.1759  -5.1599  -5.1569  -5.1488
    -5.1378  -5.1282  -5.1222  -5.1053  -5.1019  -5.0975  -5.0894  -5.0550
    -5.0405  -5.0274  -5.0224  -5.0215  -5.0122  -4.8816  -4.8433  -4.8123
    -4.3322  -4.0966  -3.8879  -3.7890  -3.5762  -3.5482  -3.2781  -3.0023
    -0.7274  -0.6625  -0.6245  -0.5971  -0.5542  -0.4198  -0.4001  -0.3196
    -0.1551  -0.1020  -0.0438   0.0119   0.3600   0.4461   0.4615   0.5034
     0.5416   0.5601   0.5767   0.6399   0.6687   0.7023   0.7543   0.7844
     0.8271   0.9115   0.9267   1.0183   1.0424   1.0743   1.1087   1.1542
     1.1963   1.2244   1.2525   1.2768   1.2879   1.3283   1.3435   1.3660
     1.3953   1.4167   1.4370   1.4480   1.4772   1.4904   1.5042   1.5287
     1.5489   1.5816   1.6000   1.6335   1.6682   1.6845   1.7295   1.7459
     1.7919   1.8147   1.8628   1.8865   1.8961   1.9553   2.0160   2.0549
     2.1055   2.1451   2.1818   2.2806   2.3896   2.4679   2.6558   2.8284

          k = 0.1250-0.3750 0.1250 (132608 PWs)   bands (ev):

   -18.4448 -18.4342 -18.4265 -18.4242 -18.4204 -18.4147 -18.4022 -18.3704
   -18.3555 -18.3389 -18.3318 -18.3289 -18.3256 -18.3247 -18.3181 -18.3129
   -18.3108 -18.3091 -18.3046 -18.3019 -18.2944 -18.2911 -18.2843 -18.2830
   -18.2759 -18.2732 -18.2715 -18.2667 -18.2649 -18.2631 -18.2544 -18.2541
   -18.2527 -18.2499 -18.2367 -18.2314 -18.2280 -18.1392 -18.1370 -18.1333
   -18.1232 -18.1197 -18.1150 -18.1113 -18.1083 -18.1040 -18.1004 -18.0149
    -9.5811  -9.4988  -9.3472  -9.2596  -9.1983  -9.1754  -9.1333  -9.0345
    -9.0088  -8.9595  -8.9426  -8.9085  -8.8956  -8.8585  -8.8491  -8.8238
    -8.7897  -8.7723  -8.7360  -8.7110  -8.6568  -8.6235  -8.5206  -8.4503
    -5.2288  -5.2231  -5.2103  -5.1843  -5.1756  -5.1596  -5.1582  -5.1481
    -5.1378  -5.1282  -5.1222  -5.1053  -5.1016  -5.0978  -5.0893  -5.0551
    -5.0404  -5.0274  -5.0225  -5.0215  -5.0122  -4.8815  -4.8433  -4.8123
    -4.3331  -4.1015  -3.8631  -3.8022  -3.5840  -3.5520  -3.2714  -3.0031
    -0.7315  -0.6568  -0.6376  -0.5787  -0.5497  -0.4277  -0.4054  -0.3230
    -0.1561  -0.1090  -0.0387   0.0218   0.3663   0.4329   0.4826   0.5019
     0.5290   0.5632   0.5786   0.6394   0.6599   0.6943   0.7507   0.8004
     0.8373   0.8960   0.9355   0.9927   1.0546   1.0733   1.1080   1.1595
     1.1897   1.2315   1.2585   1.2842   1.2991   1.3264   1.3541   1.3639
     1.3864   1.4019   1.4147   1.4486   1.4641   1.4827   1.5255   1.5372
     1.5512   1.5842   1.6175   1.6308   1.6501   1.6969   1.7132   1.7425
     1.7864   1.8234   1.8746   1.8845   1.8999   1.9487   2.0165   2.0585
     2.1116   2.1562   2.2072   2.2568   2.3597   2.4794   2.6463   2.8383

          k =-0.1250-0.3750 0.3750 (132616 PWs)   bands (ev):

   -18.4448 -18.4342 -18.4265 -18.4242 -18.4204 -18.4147 -18.4022 -18.3704
   -18.3555 -18.3389 -18.3318 -18.3289 -18.3256 -18.3247 -18.3181 -18.3129
   -18.3108 -18.3091 -18.3046 -18.3019 -18.2944 -18.2911 -18.2843 -18.2830
   -18.2759 -18.2732 -18.2715 -18.2667 -18.2649 -18.2631 -18.2544 -18.2541
   -18.2527 -18.2499 -18.2367 -18.2314 -18.2280 -18.1392 -18.1370 -18.1333
   -18.1232 -18.1197 -18.1150 -18.1113 -18.1083 -18.1040 -18.1004 -18.0149
    -9.5721  -9.5108  -9.3309  -9.2416  -9.2232  -9.1894  -9.1293  -9.0514
    -9.0153  -8.9734  -8.9422  -8.8976  -8.8819  -8.8547  -8.8375  -8.8165
    -8.7848  -8.7696  -8.7328  -8.7153  -8.6617  -8.6271  -8.5247  -8.4509
    -5.2287  -5.2230  -5.2104  -5.1843  -5.1760  -5.1597  -5.1570  -5.1488
    -5.1378  -5.1278  -5.1222  -5.1056  -5.1021  -5.0975  -5.0893  -5.0549
    -5.0405  -5.0276  -5.0224  -5.0214  -5.0121  -4.8822  -4.8435  -4.8123
    -4.2105  -4.0563  -3.9488  -3.7712  -3.6526  -3.5094  -3.3667  -3.1909
    -0.7096  -0.6526  -0.5333  -0.4623  -0.3636  -0.2470  -0.2075  -0.1261
    -0.0823  -0.0466   0.0526   0.0939   0.2782   0.3639   0.3841   0.4433
     0.4881   0.5518   0.5669   0.6070   0.6353   0.6567   0.6936   0.7055
     0.7714   0.8845   0.9162   0.9334   0.9804   0.9899   1.0519   1.0899
     1.1501   1.1882   1.2295   1.2473   1.2656   1.3057   1.3154   1.3343
     1.3837   1.4055   1.4152   1.4483   1.4650   1.4864   1.5067   1.5256
     1.5618   1.6062   1.6476   1.6535   1.6878   1.7223   1.7543   1.7699
     1.7918   1.8399   1.8612   1.8890   1.9014   1.9263   1.9800   2.0206
     2.0827   2.0985   2.1344   2.1864   2.2426   2.3410   2.5171   2.6262

          k =-0.1250 0.3750-0.3750 (132616 PWs)   bands (ev):

   -18.4448 -18.4342 -18.4265 -18.4242 -18.4204 -18.4147 -18.4022 -18.3704
   -18.3555 -18.3389 -18.3318 -18.3289 -18.3256 -18.3247 -18.3181 -18.3129
   -18.3108 -18.3091 -18.3046 -18.3019 -18.2944 -18.2911 -18.2843 -18.2830
   -18.2759 -18.2732 -18.2715 -18.2667 -18.2649 -18.2631 -18.2544 -18.2541
   -18.2527 -18.2499 -18.2367 -18.2314 -18.2280 -18.1392 -18.1370 -18.1333
   -18.1232 -18.1197 -18.1150 -18.1113 -18.1083 -18.1040 -18.1004 -18.0149
    -9.5739  -9.5073  -9.3311  -9.2569  -9.2145  -9.1825  -9.1283  -9.0522
    -9.0183  -8.9723  -8.9443  -8.8960  -8.8804  -8.8549  -8.8398  -8.8138
    -8.7845  -8.7692  -8.7358  -8.7154  -8.6606  -8.6271  -8.5245  -8.4510
    -5.2287  -5.2230  -5.2104  -5.1843  -5.1757  -5.1594  -5.1581  -5.1482
    -5.1378  -5.1278  -5.1223  -5.1055  -5.1019  -5.0977  -5.0892  -5.0550
    -5.0404  -5.0275  -5.0225  -5.0214  -5.0121  -4.8821  -4.8435  -4.8123
    -4.2163  -4.0475  -3.9498  -3.7555  -3.6793  -3.5011  -3.3667  -3.1903
    -0.7140  -0.6378  -0.5330  -0.4755  -0.3611  -0.2581  -0.2060  -0.1339
    -0.0786  -0.0484   0.0582   0.1120   0.2587   0.3782   0.4113   0.4523
     0.4855   0.5256   0.5485   0.6069   0.6359   0.6571   0.6864   0.7282
     0.7806   0.8788   0.8974   0.9246   0.9989   1.0018   1.0226   1.0851
     1.1471   1.1988   1.2245   1.2544   1.2742   1.3089   1.3328   1.3625
     1.3800   1.3922   1.4193   1.4249   1.4526   1.4635   1.4986   1.5084
     1.5910   1.6128   1.6385   1.6733   1.6864   1.7127   1.7454   1.7612
     1.8163   1.8392   1.8611   1.8882   1.9161   1.9330   1.9797   2.0219
     2.0801   2.1128   2.1413   2.1631   2.2401   2.3594   2.4758   2.6412

          k = 0.1250-0.3750-0.3750 (132616 PWs)   bands (ev):

   -18.4448 -18.4342 -18.4265 -18.4242 -18.4204 -18.4147 -18.4022 -18.3704
   -18.3555 -18.3389 -18.3318 -18.3289 -18.3256 -18.3247 -18.3181 -18.3129
   -18.3108 -18.3091 -18.3046 -18.3019 -18.2944 -18.2911 -18.2843 -18.2830
   -18.2759 -18.2732 -18.2715 -18.2667 -18.2649 -18.2631 -18.2544 -18.2541
   -18.2527 -18.2499 -18.2367 -18.2314 -18.2280 -18.1392 -18.1370 -18.1333
   -18.1232 -18.1197 -18.1150 -18.1113 -18.1083 -18.1040 -18.1004 -18.0149
    -9.5720  -9.5107  -9.3320  -9.2408  -9.2236  -9.1871  -9.1292  -9.0548
    -9.0174  -8.9735  -8.9381  -8.8964  -8.8791  -8.8570  -8.8373  -8.8191
    -8.7850  -8.7685  -8.7351  -8.7144  -8.6601  -8.6279  -8.5246  -8.4510
    -5.2287  -5.2230  -5.2104  -5.1843  -5.1759  -5.1597  -5.1578  -5.1482
    -5.1378  -5.1277  -5.1219  -5.1055  -5.1022  -5.0977  -5.0894  -5.0548
    -5.0405  -5.0276  -5.0225  -5.0214  -5.0120  -4.8821  -4.8436  -4.8124
    -4.2144  -4.0316  -3.9668  -3.7992  -3.6229  -3.4852  -3.4044  -3.1818
    -0.7092  -0.6428  -0.5314  -0.4904  -0.3392  -0.2539  -0.2083  -0.1537
    -0.0870  -0.0301   0.0692   0.0901   0.2735   0.3790   0.4048   0.4345
     0.5109   0.5336   0.5696   0.5860   0.6335   0.6514   0.6698   0.7299
     0.7914   0.8700   0.8965   0.9396   0.9667   1.0075   1.0409   1.1004
     1.1303   1.1969   1.2410   1.2545   1.2887   1.2976   1.3303   1.3434
     1.3690   1.3859   1.3998   1.4385   1.4614   1.4968   1.5049   1.5260
     1.5747   1.6107   1.6434   1.6799   1.6940   1.7042   1.7324   1.7555
     1.8075   1.8307   1.8515   1.8845   1.9141   1.9449   1.9804   2.0367
     2.0532   2.0761   2.1577   2.1868   2.2583   2.3562   2.4969   2.6226

          k = 0.3750 0.1250-0.3750 (132616 PWs)   bands (ev):

   -18.4448 -18.4342 -18.4265 -18.4242 -18.4204 -18.4147 -18.4022 -18.3704
   -18.3555 -18.3389 -18.3318 -18.3289 -18.3257 -18.3247 -18.3181 -18.3129
   -18.3108 -18.3091 -18.3046 -18.3019 -18.2944 -18.2911 -18.2844 -18.2830
   -18.2759 -18.2732 -18.2715 -18.2667 -18.2649 -18.2631 -18.2544 -18.2541
   -18.2527 -18.2499 -18.2367 -18.2314 -18.2280 -18.1392 -18.1370 -18.1333
   -18.1232 -18.1197 -18.1150 -18.1113 -18.1083 -18.1040 -18.1004 -18.0149
    -9.5717  -9.5096  -9.3349  -9.2649  -9.2040  -9.1780  -9.1335  -9.0337
    -9.0189  -8.9675  -8.9448  -8.9118  -8.8831  -8.8736  -8.8482  -8.8104
    -8.7704  -8.7624  -8.7435  -8.7026  -8.6656  -8.6226  -8.5276  -8.4515
    -5.2288  -5.2234  -5.2104  -5.1840  -5.1758  -5.1600  -5.1571  -5.1491
    -5.1375  -5.1278  -5.1224  -5.1052  -5.1021  -5.0976  -5.0886  -5.0551
    -5.0407  -5.0275  -5.0227  -5.0213  -5.0121  -4.8820  -4.8431  -4.8120
    -4.1989  -4.0701  -3.9586  -3.7878  -3.6537  -3.4532  -3.3736  -3.2087
    -0.6470  -0.5924  -0.5563  -0.5098  -0.4119  -0.3268  -0.2512  -0.1612
    -0.0579  -0.0110   0.0597   0.1099   0.2659   0.3817   0.4453   0.4637
     0.5187   0.5604   0.5866   0.6080   0.6186   0.6603   0.6893   0.7221
     0.7989   0.8306   0.8977   0.9326   0.9770   1.0200   1.0712   1.0968
     1.1311   1.1482   1.1866   1.2336   1.2499   1.2724   1.3383   1.3575
     1.3862   1.3985   1.4334   1.4605   1.4668   1.4804   1.5058   1.5300
     1.5652   1.5844   1.6398   1.6488   1.6918   1.7094   1.7113   1.7588
     1.8083   1.8267   1.8560   1.8935   1.9332   1.9444   1.9930   2.0387
     2.0670   2.1037   2.1489   2.1864   2.2998   2.3680   2.5309   2.5768

          k =-0.3750-0.1250-0.3750 (132616 PWs)   bands (ev):

   -18.4448 -18.4342 -18.4265 -18.4242 -18.4204 -18.4147 -18.4022 -18.3704
   -18.3555 -18.3389 -18.3318 -18.3289 -18.3257 -18.3247 -18.3181 -18.3129
   -18.3108 -18.3091 -18.3046 -18.3019 -18.2944 -18.2911 -18.2844 -18.2830
   -18.2759 -18.2732 -18.2715 -18.2667 -18.2649 -18.2631 -18.2544 -18.2541
   -18.2527 -18.2499 -18.2367 -18.2314 -18.2280 -18.1392 -18.1370 -18.1333
   -18.1232 -18.1197 -18.1150 -18.1113 -18.1083 -18.1040 -18.1004 -18.0149
    -9.5737  -9.5059  -9.3367  -9.2692  -9.2063  -9.1578  -9.1455  -9.0420
    -9.0185  -8.9607  -8.9415  -8.9099  -8.8858  -8.8775  -8.8468  -8.8074
    -8.7751  -8.7640  -8.7410  -8.7030  -8.6638  -8.6235  -8.5277  -8.4513
    -5.2289  -5.2234  -5.2104  -5.1841  -5.1758  -5.1602  -5.1567  -5.1491
    -5.1376  -5.1278  -5.1222  -5.1052  -5.1020  -5.0979  -5.0885  -5.0550
    -5.0406  -5.0275  -5.0227  -5.0214  -5.0121  -4.8819  -4.8431  -4.8119
    -4.2172  -4.0260  -3.9628  -3.8358  -3.6029  -3.4546  -3.4186  -3.1863
    -0.6467  -0.5983  -0.5512  -0.5192  -0.4228  -0.3051  -0.2221  -0.1795
    -0.0785  -0.0309   0.0647   0.1192   0.3131   0.3856   0.4124   0.4764
     0.5058   0.5424   0.5672   0.6111   0.6318   0.6655   0.7069   0.7495
     0.7817   0.8299   0.8767   0.9348   0.9856   1.0219   1.0548   1.0817
     1.1216   1.1619   1.2075   1.2211   1.2646   1.2929   1.3231   1.3477
     1.3750   1.4046   1.4320   1.4546   1.4826   1.5034   1.5194   1.5303
     1.5682   1.5922   1.6225   1.6557   1.6609   1.7048   1.7261   1.7535
     1.7676   1.8296   1.8705   1.8957   1.9221   1.9601   1.9905   2.0529
     2.0658   2.1125   2.1305   2.1623   2.3067   2.3936   2.5029   2.5995

          k = 0.3750-0.1250 0.3750 (132616 PWs)   bands (ev):

   -18.4448 -18.4342 -18.4265 -18.4242 -18.4204 -18.4147 -18.4022 -18.3704
   -18.3555 -18.3389 -18.3318 -18.3289 -18.3257 -18.3247 -18.3181 -18.3129
   -18.3108 -18.3091 -18.3046 -18.3019 -18.2944 -18.2911 -18.2844 -18.2830
   -18.2759 -18.2732 -18.2715 -18.2667 -18.2649 -18.2631 -18.2544 -18.2541
   -18.2527 -18.2499 -18.2367 -18.2314 -18.2280 -18.1392 -18.1370 -18.1333
   -18.1232 -18.1197 -18.1150 -18.1113 -18.1083 -18.1040 -18.1004 -18.0149
    -9.5736  -9.5058  -9.3356  -9.2742  -9.2021  -9.1588  -9.1438  -9.0366
    -9.0212  -8.9664  -8.9447  -8.9126  -8.8816  -8.8698  -8.8513  -8.8062
    -8.7751  -8.7613  -8.7451  -8.7032  -8.6635  -8.6231  -8.5274  -8.4515
    -5.2289  -5.2234  -5.2104  -5.1841  -5.1755  -5.1600  -5.1579  -5.1485
    -5.1375  -5.1278  -5.1225  -5.1052  -5.1018  -5.0978  -5.0884  -5.0552
    -5.0406  -5.0274  -5.0227  -5.0214  -5.0121  -4.8819  -4.8431  -4.8120
    -4.2135  -4.0277  -3.9611  -3.8518  -3.5875  -3.4526  -3.4143  -3.1961
    -0.6393  -0.5855  -0.5586  -0.5142  -0.4343  -0.3197  -0.2297  -0.1738
    -0.0806  -0.0234   0.0697   0.1239   0.3176   0.3911   0.4093   0.4817
     0.5049   0.5438   0.5595   0.5950   0.6218   0.6788   0.7067   0.7401
     0.7898   0.8425   0.8710   0.9278   0.9931   1.0221   1.0463   1.0846
     1.1227   1.1640   1.2002   1.2156   1.2664   1.2840   1.3310   1.3651
     1.3901   1.4030   1.4264   1.4454   1.4695   1.4922   1.5058   1.5361
     1.5524   1.6023   1.6409   1.6509   1.6624   1.6932   1.7227   1.7691
     1.7785   1.8450   1.8736   1.8796   1.9288   1.9657   2.0045   2.0434
     2.0703   2.1076   2.1276   2.1622   2.3193   2.4046   2.4867   2.5814

          k =-0.3750 0.1250 0.3750 (132616 PWs)   bands (ev):

   -18.4448 -18.4342 -18.4265 -18.4242 -18.4204 -18.4147 -18.4022 -18.3704
   -18.3555 -18.3389 -18.3318 -18.3289 -18.3257 -18.3247 -18.3181 -18.3129
   -18.3108 -18.3091 -18.3046 -18.3019 -18.2944 -18.2911 -18.2844 -18.2830
   -18.2759 -18.2732 -18.2715 -18.2667 -18.2649 -18.2631 -18.2544 -18.2541
   -18.2527 -18.2499 -18.2367 -18.2314 -18.2280 -18.1392 -18.1370 -18.1333
   -18.1232 -18.1197 -18.1150 -18.1113 -18.1083 -18.1040 -18.1004 -18.0149
    -9.5716  -9.5096  -9.3362  -9.2635  -9.1988  -9.1838  -9.1319  -9.0350
    -9.0234  -8.9656  -8.9400  -8.9114  -8.8853  -8.8723  -8.8485  -8.8101
    -8.7734  -8.7614  -8.7439  -8.7023  -8.6651  -8.6224  -8.5274  -8.4516
    -5.2289  -5.2234  -5.2104  -5.1840  -5.1756  -5.1600  -5.1579  -5.1483
    -5.1376  -5.1277  -5.1221  -5.1051  -5.1022  -5.0978  -5.0886  -5.0551
    -5.0407  -5.0275  -5.0227  -5.0214  -5.0121  -4.8819  -4.8431  -4.8121
    -4.1990  -4.0700  -3.9584  -3.7873  -3.6552  -3.4521  -3.3744  -3.2081
    -0.6456  -0.5856  -0.5524  -0.5187  -0.4184  -0.3326  -0.2563  -0.1485
    -0.0662  -0.0058   0.0581   0.1170   0.2636   0.3865   0.4507   0.4778
     0.5160   0.5415   0.5814   0.5980   0.6246   0.6690   0.6899   0.7198
     0.8083   0.8370   0.8941   0.9376   0.9772   1.0154   1.0571   1.0965
     1.1317   1.1428   1.1875   1.2230   1.2671   1.2830   1.3285   1.3597
     1.3728   1.3832   1.4301   1.4547   1.4739   1.5022   1.5267   1.5449
     1.5570   1.5964   1.6245   1.6536   1.6713   1.6967   1.7175   1.7526
     1.7943   1.8330   1.8557   1.8799   1.9335   1.9535   2.0091   2.0514
     2.0693   2.1172   2.1256   2.2026   2.2815   2.3794   2.5216   2.5764

          k = 0.3750-0.3750 0.1250 (132616 PWs)   bands (ev):

   -18.4448 -18.4342 -18.4265 -18.4242 -18.4204 -18.4147 -18.4022 -18.3704
   -18.3555 -18.3389 -18.3318 -18.3289 -18.3257 -18.3247 -18.3181 -18.3129
   -18.3108 -18.3091 -18.3046 -18.3019 -18.2944 -18.2911 -18.2844 -18.2830
   -18.2759 -18.2732 -18.2715 -18.2667 -18.2649 -18.2631 -18.2544 -18.2541
   -18.2527 -18.2499 -18.2367 -18.2314 -18.2280 -18.1392 -18.1370 -18.1333
   -18.1232 -18.1197 -18.1150 -18.1113 -18.1083 -18.1040 -18.1004 -18.0149
    -9.5744  -9.5041  -9.3431  -9.2579  -9.1968  -9.1697  -9.1571  -9.0375
    -9.0151  -8.9591  -8.9480  -8.9108  -8.8859  -8.8524  -8.8497  -8.8171
    -8.7858  -8.7648  -8.7345  -8.7123  -8.6567  -8.6237  -8.5267  -8.4517
    -5.2287  -5.2235  -5.2105  -5.1841  -5.1755  -5.1604  -5.1582  -5.1471
    -5.1376  -5.1278  -5.1222  -5.1051  -5.1022  -5.0985  -5.0893  -5.0550
    -5.0409  -5.0272  -5.0224  -5.0215  -5.0121  -4.8813  -4.8431  -4.8116
    -4.2092  -4.0329  -3.9467  -3.7663  -3.6931  -3.4816  -3.3984  -3.1996
    -0.6373  -0.6075  -0.5032  -0.4919  -0.3863  -0.2954  -0.2306  -0.1628
    -0.0724  -0.0275   0.0697   0.1201   0.3080   0.3910   0.4418   0.4709
     0.4860   0.5284   0.5597   0.5877   0.6090   0.6281   0.6930   0.7234
     0.7688   0.8572   0.9041   0.9588   0.9938   1.0119   1.0558   1.1080
     1.1276   1.1414   1.2009   1.2196   1.2441   1.2868   1.3016   1.3263
     1.3712   1.3973   1.4186   1.4466   1.4759   1.4830   1.5241   1.5521
     1.5798   1.6089   1.6231   1.6631   1.6724   1.7044   1.7400   1.7510
     1.8032   1.8290   1.8772   1.8999   1.9211   1.9588   1.9842   2.0219
     2.0477   2.1044   2.1429   2.1644   2.2371   2.3828   2.4485   2.5943

          k =-0.3750-0.3750-0.1250 (132616 PWs)   bands (ev):

   -18.4448 -18.4342 -18.4265 -18.4242 -18.4204 -18.4147 -18.4022 -18.3704
   -18.3555 -18.3389 -18.3318 -18.3289 -18.3257 -18.3247 -18.3181 -18.3129
   -18.3108 -18.3091 -18.3046 -18.3019 -18.2944 -18.2911 -18.2844 -18.2830
   -18.2759 -18.2732 -18.2715 -18.2667 -18.2649 -18.2631 -18.2544 -18.2541
   -18.2527 -18.2499 -18.2367 -18.2314 -18.2280 -18.1392 -18.1370 -18.1333
   -18.1232 -18.1197 -18.1150 -18.1113 -18.1083 -18.1040 -18.1004 -18.0149
    -9.5745  -9.5041  -9.3441  -9.2512  -9.1996  -9.1796  -9.1510  -9.0417
    -9.0133  -8.9553  -8.9429  -8.9135  -8.8858  -8.8547  -8.8469  -8.8233
    -8.7842  -8.7657  -8.7315  -8.7128  -8.6568  -8.6238  -8.5269  -8.4516
    -5.2287  -5.2236  -5.2105  -5.1841  -5.1759  -5.1605  -5.1571  -5.1475
    -5.1377  -5.1278  -5.1219  -5.1050  -5.1025  -5.0986  -5.0894  -5.0549
    -5.0408  -5.0273  -5.0224  -5.0215  -5.0121  -4.8813  -4.8431  -4.8116
    -4.2156  -4.0169  -3.9492  -3.7886  -3.6644  -3.4987  -3.4058  -3.1882
    -0.6493  -0.6013  -0.5239  -0.4828  -0.3592  -0.3162  -0.1922  -0.1781
    -0.0689  -0.0233   0.0634   0.0919   0.2893   0.4294   0.4435   0.4557
     0.4904   0.5291   0.5602   0.5996   0.6143   0.6515   0.6782   0.7101
     0.7720   0.8482   0.8939   0.9449   0.9640   1.0509   1.0788   1.0862
     1.1165   1.1670   1.1910   1.2268   1.2590   1.2824   1.3066   1.3412
     1.3619   1.3835   1.4145   1.4568   1.4799   1.4958   1.5305   1.5577
     1.5640   1.5895   1.6221   1.6473   1.6734   1.7182   1.7466   1.7710
     1.7811   1.8293   1.8605   1.8955   1.9177   1.9496   1.9849   2.0213
     2.0460   2.0967   2.1269   2.1986   2.2486   2.3639   2.4641   2.5987

          k = 0.3750 0.3750-0.1250 (132616 PWs)   bands (ev):

   -18.4448 -18.4342 -18.4265 -18.4242 -18.4204 -18.4147 -18.4022 -18.3704
   -18.3555 -18.3389 -18.3318 -18.3289 -18.3257 -18.3247 -18.3181 -18.3129
   -18.3108 -18.3091 -18.3046 -18.3019 -18.2944 -18.2911 -18.2844 -18.2830
   -18.2759 -18.2732 -18.2715 -18.2667 -18.2649 -18.2631 -18.2544 -18.2541
   -18.2527 -18.2499 -18.2367 -18.2314 -18.2280 -18.1392 -18.1370 -18.1333
   -18.1232 -18.1197 -18.1150 -18.1113 -18.1083 -18.1040 -18.1004 -18.0149
    -9.5726  -9.5075  -9.3431  -9.2429  -9.2083  -9.1809  -9.1491  -9.0387
    -9.0116  -8.9645  -8.9426  -8.9100  -8.8861  -8.8536  -8.8467  -8.8230
    -8.7846  -8.7656  -8.7310  -8.7126  -8.6578  -8.6234  -8.5269  -8.4516
    -5.2287  -5.2235  -5.2105  -5.1840  -5.1758  -5.1604  -5.1573  -5.1477
    -5.1376  -5.1279  -5.1221  -5.1051  -5.1025  -5.0983  -5.0894  -5.0550
    -5.0409  -5.0273  -5.0224  -5.0215  -5.0121  -4.8813  -4.8431  -4.8116
    -4.2068  -4.0209  -3.9602  -3.8083  -3.6318  -3.4950  -3.4072  -3.1977
    -0.6374  -0.5904  -0.5340  -0.4891  -0.3820  -0.3052  -0.1957  -0.1744
    -0.0612  -0.0241   0.0737   0.0905   0.2919   0.4016   0.4494   0.4651
     0.4830   0.5345   0.5572   0.5884   0.6116   0.6522   0.6836   0.7168
     0.7605   0.8535   0.8967   0.9528   0.9884   1.0569   1.0779   1.0832
     1.1164   1.1631   1.1885   1.1995   1.2437   1.2952   1.3129   1.3353
     1.3605   1.3880   1.4237   1.4441   1.4717   1.5072   1.5136   1.5381
     1.5728   1.6110   1.6252   1.6530   1.6693   1.7177   1.7380   1.7744
     1.7871   1.8318   1.8669   1.9164   1.9238   1.9408   1.9840   2.0105
     2.0445   2.0864   2.1243   2.1932   2.2767   2.3766   2.4620   2.5723

          k =-0.3750 0.3750 0.1250 (132616 PWs)   bands (ev):

   -18.4448 -18.4342 -18.4265 -18.4242 -18.4204 -18.4147 -18.4022 -18.3704
   -18.3555 -18.3389 -18.3318 -18.3289 -18.3257 -18.3247 -18.3181 -18.3129
   -18.3108 -18.3091 -18.3046 -18.3019 -18.2944 -18.2911 -18.2844 -18.2830
   -18.2759 -18.2732 -18.2715 -18.2667 -18.2649 -18.2631 -18.2544 -18.2541
   -18.2527 -18.2499 -18.2367 -18.2314 -18.2280 -18.1392 -18.1370 -18.1333
   -18.1232 -18.1197 -18.1150 -18.1113 -18.1083 -18.1040 -18.1004 -18.0149
    -9.5725  -9.5076  -9.3437  -9.2436  -9.2075  -9.1718  -9.1580  -9.0388
    -9.0150  -8.9618  -8.9387  -8.9114  -8.8869  -8.8564  -8.8447  -8.8204
    -8.7867  -8.7656  -8.7331  -8.7111  -8.6574  -8.6236  -8.5267  -8.4517
    -5.2287  -5.2235  -5.2105  -5.1841  -5.1756  -5.1605  -5.1581  -5.1470
    -5.1376  -5.1278  -5.1218  -5.1050  -5.1026  -5.0985  -5.0895  -5.0549
    -5.0409  -5.0273  -5.0224  -5.0215  -5.0121  -4.8812  -4.8431  -4.8117
    -4.2039  -4.0382  -3.9499  -3.7851  -3.6597  -3.4956  -3.3962  -3.1992
    -0.6445  -0.5941  -0.5236  -0.4878  -0.3773  -0.2918  -0.2296  -0.1636
    -0.0694  -0.0222   0.0691   0.1067   0.3075   0.3917   0.4289   0.4734
     0.4829   0.5213   0.5615   0.5967   0.6131   0.6400   0.6890   0.7256
     0.7672   0.8638   0.8988   0.9594   0.9893   1.0226   1.0491   1.1056
     1.1479   1.1595   1.1782   1.2199   1.2504   1.2755   1.2965   1.3485
     1.3652   1.3875   1.4065   1.4514   1.4767   1.4908   1.5250   1.5607
     1.5745   1.5877   1.6289   1.6592   1.6709   1.7053   1.7482   1.7633
     1.7956   1.8203   1.8619   1.8894   1.9289   1.9542   1.9729   2.0198
     2.0433   2.0982   2.1394   2.2094   2.2597   2.3634   2.4669   2.5756

          k =-0.3750-0.3750 0.3750 (132612 PWs)   bands (ev):

   -18.4448 -18.4342 -18.4265 -18.4242 -18.4204 -18.4147 -18.4022 -18.3704
   -18.3555 -18.3389 -18.3318 -18.3289 -18.3257 -18.3247 -18.3181 -18.3129
   -18.3108 -18.3091 -18.3046 -18.3019 -18.2944 -18.2911 -18.2844 -18.2830
   -18.2759 -18.2732 -18.2715 -18.2667 -18.2649 -18.2631 -18.2544 -18.2541
   -18.2527 -18.2499 -18.2367 -18.2314 -18.2280 -18.1392 -18.1370 -18.1333
   -18.1232 -18.1197 -18.1150 -18.1113 -18.1083 -18.1040 -18.1004 -18.0149
    -9.5696  -9.5080  -9.3301  -9.2562  -9.2107  -9.1736  -9.1544  -9.0562
    -9.0301  -8.9769  -8.9379  -8.8936  -8.8753  -8.8497  -8.8317  -8.8117
    -8.7802  -8.7691  -8.7311  -8.7147  -8.6650  -8.6276  -8.5289  -8.4520
    -5.2286  -5.2235  -5.2107  -5.1841  -5.1759  -5.1602  -5.1574  -5.1483
    -5.1375  -5.1278  -5.1219  -5.1052  -5.1024  -5.0977  -5.0890  -5.0548
    -5.0408  -5.0275  -5.0224  -5.0213  -5.0121  -4.8817  -4.8431  -4.8116
    -4.0845  -3.9908  -3.8898  -3.7773  -3.6916  -3.5883  -3.5164  -3.3762
    -0.4789  -0.4126  -0.3381  -0.3270  -0.2637  -0.1918  -0.1434  -0.1080
    -0.0409   0.0255   0.0994   0.1564   0.2456   0.2942   0.3626   0.4126
     0.4581   0.5126   0.5390   0.5593   0.5725   0.5993   0.6155   0.6696
     0.7927   0.8699   0.8938   0.9361   0.9649   0.9990   1.0385   1.0640
     1.0760   1.1075   1.1416   1.1584   1.2198   1.2497   1.2548   1.2930
     1.3356   1.3695   1.3965   1.4252   1.4624   1.4862   1.5095   1.5354
     1.5995   1.6384   1.6744   1.6839   1.6931   1.7252   1.7568   1.7817
     1.8047   1.8254   1.8457   1.8746   1.9113   1.9301   1.9634   1.9968
     2.0438   2.0554   2.0935   2.1346   2.1576   2.1891   2.2923   2.3492

          k =-0.3750 0.3750-0.3750 (132612 PWs)   bands (ev):

   -18.4448 -18.4342 -18.4265 -18.4242 -18.4204 -18.4147 -18.4022 -18.3704
   -18.3555 -18.3389 -18.3318 -18.3289 -18.3257 -18.3247 -18.3181 -18.3129
   -18.3108 -18.3091 -18.3046 -18.3019 -18.2944 -18.2911 -18.2844 -18.2830
   -18.2759 -18.2732 -18.2715 -18.2667 -18.2649 -18.2631 -18.2544 -18.2541
   -18.2527 -18.2499 -18.2367 -18.2314 -18.2280 -18.1392 -18.1370 -18.1333
   -18.1232 -18.1197 -18.1150 -18.1113 -18.1083 -18.1040 -18.1004 -18.0149
    -9.5716  -9.5043  -9.3306  -9.2669  -9.2017  -9.1734  -9.1516  -9.0573
    -9.0321  -8.9764  -8.9396  -8.8929  -8.8734  -8.8500  -8.8343  -8.8079
    -8.7801  -8.7690  -8.7343  -8.7149  -8.6639  -8.6275  -8.5287  -8.4521
    -5.2287  -5.2235  -5.2107  -5.1842  -5.1757  -5.1602  -5.1582  -5.1478
    -5.1375  -5.1277  -5.1220  -5.1051  -5.1022  -5.0980  -5.0888  -5.0549
    -5.0408  -5.0274  -5.0225  -5.0213  -5.0121  -4.8817  -4.8431  -4.8117
    -4.1053  -3.9489  -3.8743  -3.8292  -3.6697  -3.6031  -3.5096  -3.3747
    -0.4781  -0.3997  -0.3440  -0.3146  -0.2617  -0.2259  -0.1414  -0.1005
    -0.0752   0.0074   0.1350   0.1787   0.2751   0.2912   0.3877   0.4128
     0.4674   0.4738   0.5110   0.5280   0.5773   0.6027   0.6397   0.6754
     0.8163   0.8488   0.8921   0.9381   0.9638   0.9723   1.0261   1.0635
     1.0899   1.0968   1.1477   1.1848   1.2167   1.2444   1.2640   1.3015
     1.3404   1.3610   1.3945   1.4219   1.4450   1.4823   1.5007   1.5358
     1.6117   1.6416   1.6692   1.6763   1.7114   1.7298   1.7466   1.7887
     1.8062   1.8288   1.8534   1.8814   1.9127   1.9298   1.9709   2.0055
     2.0500   2.0792   2.0918   2.1062   2.1334   2.1871   2.2551   2.3808

          k = 0.3750-0.3750-0.3750 (132612 PWs)   bands (ev):

   -18.4448 -18.4342 -18.4265 -18.4242 -18.4204 -18.4147 -18.4022 -18.3704
   -18.3555 -18.3389 -18.3318 -18.3289 -18.3257 -18.3247 -18.3181 -18.3129
   -18.3108 -18.3091 -18.3046 -18.3019 -18.2944 -18.2911 -18.2844 -18.2830
   -18.2759 -18.2732 -18.2715 -18.2667 -18.2649 -18.2631 -18.2544 -18.2541
   -18.2527 -18.2499 -18.2367 -18.2314 -18.2280 -18.1392 -18.1370 -18.1333
   -18.1232 -18.1197 -18.1150 -18.1113 -18.1083 -18.1040 -18.1004 -18.0149
    -9.5696  -9.5080  -9.3316  -9.2542  -9.2066  -9.1814  -9.1504  -9.0569
    -9.0333  -8.9762  -8.9354  -8.8924  -8.8727  -8.8542  -8.8298  -8.8110
    -8.7838  -8.7678  -8.7328  -8.7138  -8.6644  -8.6274  -8.5287  -8.4522
    -5.2287  -5.2235  -5.2107  -5.1842  -5.1758  -5.1603  -5.1581  -5.1476
    -5.1376  -5.1277  -5.1216  -5.1050  -5.1025  -5.0980  -5.0890  -5.0548
    -5.0408  -5.0275  -5.0225  -5.0213  -5.0120  -4.8816  -4.8432  -4.8117
    -4.0856  -3.9891  -3.8825  -3.7975  -3.6721  -3.5925  -3.5218  -3.3736
    -0.4646  -0.4121  -0.3768  -0.3037  -0.2384  -0.2266  -0.1512  -0.0981
    -0.0626   0.0435   0.0880   0.1827   0.2406   0.3121   0.3908   0.4163
     0.4401   0.4922   0.5257   0.5365   0.5742   0.6110   0.6288   0.6740
     0.7947   0.8714   0.9082   0.9149   0.9589   0.9890   1.0282   1.0598
     1.0923   1.1158   1.1427   1.1935   1.2081   1.2377   1.2680   1.2969
     1.3228   1.3645   1.3945   1.4088   1.4564   1.4732   1.5174   1.5527
     1.6095   1.6313   1.6694   1.6876   1.7051   1.7304   1.7382   1.7788
     1.8026   1.8352   1.8409   1.8549   1.9120   1.9329   1.9729   2.0205
     2.0340   2.0521   2.0852   2.1389   2.1841   2.2116   2.2431   2.3533

     highest occupied level (ev):     3.1013

!    total energy              =   -2256.28259024 Ry
     estimated scf accuracy    <          6.3E-11 Ry

     The total energy is the sum of the following terms:
     one-electron contribution =    -993.78477192 Ry
     hartree contribution      =     624.84773195 Ry
     xc contribution           =    -647.56550872 Ry
     ewald contribution        =   -1239.78004155 Ry

     convergence has been achieved in  15 iterations

     Forces acting on atoms (cartesian axes, Ry/au):

     atom    1 type  1   force =    -0.00160053   -0.00236955   -0.00258552
     atom    2 type  2   force =     0.01325044   -0.00183674   -0.00506486
     atom    3 type  3   force =    -0.00953913   -0.00280939    0.00483899
     atom    4 type  3   force =     0.00741907   -0.00294778   -0.02146288
     atom    5 type  3   force =    -0.00118120   -0.00003252   -0.00425446
     atom    6 type  1   force =    -0.00577381   -0.00113357    0.00036704
     atom    7 type  2   force =    -0.00527490   -0.00513875    0.00526096
     atom    8 type  3   force =     0.00888952    0.00265175   -0.00518111
     atom    9 type  3   force =    -0.00685028    0.00185074    0.00819812
     atom   10 type  3   force =     0.00228080    0.01480234    0.00431352
     atom   11 type  1   force =    -0.00410613    0.00692994    0.01125964
     atom   12 type  2   force =    -0.03097763    0.00447777   -0.01167520
     atom   13 type  3   force =     0.02272459   -0.00423164    0.00216818
     atom   14 type  3   force =     0.01769143    0.02064794    0.00640089
     atom   15 type  3   force =     0.00551132    0.00094482   -0.00216980
     atom   16 type  1   force =    -0.00199999    0.00000844    0.00198470
     atom   17 type  2   force =     0.03706247    0.00561239    0.00056122
     atom   18 type  3   force =     0.01636890    0.00114183    0.00053072
     atom   19 type  3   force =    -0.00691741   -0.00243492   -0.00297537
     atom   20 type  3   force =     0.00005278   -0.01217995   -0.00058929
     atom   21 type  1   force =    -0.02044425   -0.01961181   -0.00187573
     atom   22 type  2   force =    -0.02352347   -0.00141718    0.00214191
     atom   23 type  3   force =     0.03723658   -0.00475803    0.00548211
     atom   24 type  3   force =    -0.00047047   -0.00137998   -0.00953646
     atom   25 type  3   force =    -0.00324771   -0.00476161   -0.00513177
     atom   26 type  1   force =    -0.00050348   -0.00468377    0.00441096
     atom   27 type  2   force =     0.00223687    0.00578600    0.01565240
     atom   28 type  3   force =    -0.01411446   -0.00247136    0.00665247
     atom   29 type  3   force =    -0.00619182   -0.00728579   -0.01093220
     atom   30 type  3   force =     0.00264436   -0.00234504    0.00803907
     atom   31 type  1   force =    -0.00033904   -0.00017024   -0.00469080
     atom   32 type  2   force =     0.02275432   -0.00004789    0.01216419
     atom   33 type  3   force =    -0.00618761   -0.00082349   -0.00433931
     atom   34 type  3   force =    -0.01023505    0.01314140    0.00721112
     atom   35 type  3   force =     0.00521084   -0.00090018   -0.00818945
     atom   36 type  1   force =     0.00238816    0.00512755    0.00353546
     atom   37 type  2   force =    -0.01081535   -0.00638757   -0.01513662
     atom   38 type  3   force =    -0.03051875   -0.00106454    0.00093292
     atom   39 type  3   force =     0.00046981    0.00661431   -0.00332718
     atom   40 type  3   force =    -0.00337981    0.00348606    0.00701145

     Total force =     0.111876     Total SCF correction =     0.000033


     Computing stress (Cartesian axis) and pressure

          total   stress  (Ry/bohr**3)                   (kbar)     P=       -6.24
  -0.00003121   0.00000422  -0.00000456           -4.59        0.62       -0.67
   0.00000422  -0.00004958   0.00000296            0.62       -7.29        0.44
  -0.00000456   0.00000296  -0.00004645           -0.67        0.44       -6.83

 
     init_run     :     19.92s CPU     17.33s WALL (       1 calls)
     electrons    :    202.16s CPU    213.41s WALL (       1 calls)
     forces       :      8.92s CPU      3.98s WALL (       1 calls)
     stress       :     30.15s CPU     30.71s WALL (       1 calls)

     Called by init_run:
     wfcinit      :     12.03s CPU     14.25s WALL (       1 calls)
                                       14.25s GPU  (       1 calls)
     potinit      :      4.53s CPU      1.40s WALL (       1 calls)
     hinit0       :      2.78s CPU      0.98s WALL (       1 calls)

     Called by electrons:
     c_bands      :    120.71s CPU    170.68s WALL (      16 calls)
     sum_band     :     22.11s CPU     21.20s WALL (      16 calls)
                                       21.20s GPU  (      16 calls)
     v_of_rho     :     54.95s CPU     16.66s WALL (      16 calls)
     mix_rho      :      6.51s CPU      5.15s WALL (      16 calls)

     Called by c_bands:
     init_us_2    :      2.26s CPU      3.02s WALL (     280 calls)
                                        3.01s GPU  (     280 calls)
     cegterg      :     79.24s CPU    126.42s WALL (     128 calls)

     Called by *egterg:
     cdiaghg      :     13.69s CPU     24.85s WALL (     644 calls)
                                       24.82s GPU  (     644 calls)
     h_psi        :     53.73s CPU     73.99s WALL (     660 calls)
                                       73.55s GPU  (     660 calls)
     g_psi        :      0.00s CPU      0.36s WALL (     524 calls)
                                        0.35s GPU  (     524 calls)

     Called by h_psi:
     h_psi:calbec :      0.33s CPU      9.89s WALL (     660 calls)
                                        9.88s GPU  (     660 calls)
     vloc_psi     :     39.40s CPU     54.24s WALL (     660 calls)
                                       53.32s GPU  (     660 calls)
     add_vuspsi   :      0.34s CPU      9.78s WALL (     660 calls)
                                        9.77s GPU  (     660 calls)

     General routines
     calbec       :      0.33s CPU      0.40s WALL (     700 calls)
     fft          :     25.67s CPU      6.57s WALL (     185 calls)
                                        0.00s GPU  (       6 calls)
     ffts         :      2.61s CPU      0.68s WALL (      16 calls)
     fftw         :      0.69s CPU     62.80s WALL (   10440 calls)
                                       47.04s GPU  (   10440 calls)
 
     Parallel routines
 
     PWSCF        :   4m21.86s CPU   4m26.20s WALL

 
   This run was terminated on:  21:37:52  22Apr2021            

=------------------------------------------------------------------------------=
   JOB DONE.
=------------------------------------------------------------------------------=
