
     Program PWSCF v.6.7MaX starts on 22Apr2021 at 20:44: 8 

     This program is part of the open-source Quantum ESPRESSO suite
     for quantum simulation of materials; please cite
         "P. Giannozzi et al., J. Phys.:Condens. Matter 21 395502 (2009);
         "P. Giannozzi et al., J. Phys.:Condens. Matter 29 465901 (2017);
         "P. Giannozzi et al., J. Chem. Phys. 152 154105 (2020);
          URL http://www.quantum-espresso.org", 
     in publications or presentations arising from this work. More details at
     http://www.quantum-espresso.org/quote

     Parallel version (MPI & OpenMP), running on      16 processor cores
     Number of MPI processes:                 4
     Threads/MPI process:                     4

     MPI processes distributed on     1 nodes
     K-points division:     npool     =       4
     Reading input from ESP_87.pwi
Warning: card &CELL ignored
Warning: card / ignored

     Current dimensions of program PWSCF are:
     Max number of different atomic species (ntypx) = 10
     Max number of k-points (npk) =  40000
     Max angular momentum in pseudopotentials (lmaxx) =  3
     Message from routine read_pp_mesh:
     mesh size missing, using the one in header
     Message from routine read_pp_mesh:
     mesh size missing, using the one in header
     Message from routine read_pp_mesh:
     mesh size missing, using the one in header

     Subspace diagonalization in iterative solution of the eigenvalue problem:
     a serial algorithm will be used

 
     G-vector sticks info
     --------------------
     sticks:   dense  smooth     PW     G-vecs:    dense   smooth      PW
     Sum       12589   12589   3289              1061107  1061107  140905
 
     Using Slab Decomposition
 


     bravais-lattice index     =            0
     lattice parameter (alat)  =      23.7585  a.u.
     unit-cell volume          =   13410.8736 (a.u.)^3
     number of atoms/cell      =           40
     number of atomic types    =            3
     number of electrons       =       352.00
     number of Kohn-Sham states=          176
     kinetic-energy cutoff     =      70.0000  Ry
     charge density cutoff     =     280.0000  Ry
     scf convergence threshold =      1.0E-10
     mixing beta               =       0.7000
     number of iterations used =            8  plain     mixing
     Exchange-correlation= PBESOL
                           (   1   4  10   8   0   0   0)

     GPU acceleration is ACTIVE.


     celldm(1)=  23.758500  celldm(2)=   0.000000  celldm(3)=   0.000000
     celldm(4)=   0.000000  celldm(5)=   0.000000  celldm(6)=   0.000000

     crystal axes: (cart. coord. in units of alat)
               a(1) = (   1.000000   0.000000   0.000000 )  
               a(2) = (   0.000000   1.000000   0.000000 )  
               a(3) = (   0.000000   0.000000   1.000000 )  

     reciprocal axes: (cart. coord. in units 2 pi/alat)
               b(1) = (  1.000000  0.000000  0.000000 )  
               b(2) = (  0.000000  1.000000  0.000000 )  
               b(3) = (  0.000000  0.000000  1.000000 )  


     PseudoPot. # 1 for Cs read from file:
     /m100/home/userexternal/lmonacel/espresso/pseudo/Cs-nc-pbesol.upf
     MD5 check sum: 9d2f2206a14dc5b3b3f3fbfae186bed4
     Pseudo is Norm-conserving + core correction, Zval =  9.0
     Generated using ONCVPSP code by D. R. Hamann
     Using radial grid of 2384 points,  8 beta functions with: 
                l(1) =   0
                l(2) =   0
                l(3) =   1
                l(4) =   1
                l(5) =   2
                l(6) =   2
                l(7) =   3
                l(8) =   3

     PseudoPot. # 2 for Sn read from file:
     /m100/home/userexternal/lmonacel/espresso/pseudo/Sn-nc-pbesol.upf
     MD5 check sum: c2995d571af40102bfea7461443d92cf
     Pseudo is Norm-conserving + core correction, Zval = 14.0
     Generated using ONCVPSP code by D. R. Hamann
     Using radial grid of 1628 points,  6 beta functions with: 
                l(1) =   0
                l(2) =   0
                l(3) =   1
                l(4) =   1
                l(5) =   2
                l(6) =   2

     PseudoPot. # 3 for I  read from file:
     /m100/home/userexternal/lmonacel/espresso/pseudo/I-nc-pbesol.upf
     MD5 check sum: 80ed5ceb2eb9c553cfb6760a299d9c5b
     Pseudo is Norm-conserving + core correction, Zval =  7.0
     Generated using ONCVPSP code by D. R. Hamann
     Using radial grid of 1182 points,  6 beta functions with: 
                l(1) =   0
                l(2) =   0
                l(3) =   1
                l(4) =   1
                l(5) =   2
                l(6) =   2

     atomic species   valence    mass     pseudopotential
        Cs             9.00   132.90545     Cs( 1.00)
        Sn            14.00   118.71000     Sn( 1.00)
        I              7.00   126.90447     I ( 1.00)

     No symmetry found



   Cartesian axes

     site n.     atom                  positions (alat units)
         1           Cs  tau(   1) = (   0.2219374   0.2250157   0.2523183  )
         2           Sn  tau(   2) = (   0.0065092   0.0088766  -0.0152249  )
         3           I   tau(   3) = (   0.2632280   0.0071997  -0.0087319  )
         4           I   tau(   4) = (   0.0366656  -0.0275357   0.2464868  )
         5           I   tau(   5) = (   0.0153679   0.2439177   0.0290678  )
         6           Cs  tau(   6) = (   0.2643808   0.2318591   0.7378144  )
         7           Sn  tau(   7) = (  -0.0071415   0.0056388   0.4959737  )
         8           I   tau(   8) = (   0.2671312   0.0085825   0.5395512  )
         9           I   tau(   9) = (  -0.0375333  -0.0125185   0.7479346  )
        10           I   tau(  10) = (  -0.0521086   0.2671059   0.4774707  )
        11           Cs  tau(  11) = (   0.2599137   0.7704379   0.2678763  )
        12           Sn  tau(  12) = (   0.0159830   0.5080194   0.0045377  )
        13           I   tau(  13) = (   0.2588489   0.4570283  -0.0050890  )
        14           I   tau(  14) = (  -0.0027758   0.5194240   0.2481069  )
        15           I   tau(  15) = (   0.0451581   0.7538784  -0.0122072  )
        16           Cs  tau(  16) = (   0.2599153   0.7506154   0.7356777  )
        17           Sn  tau(  17) = (  -0.0084621   0.5019842   0.4964836  )
        18           I   tau(  18) = (   0.2386638   0.4926612   0.5144031  )
        19           I   tau(  19) = (   0.0060963   0.4992949   0.7423789  )
        20           I   tau(  20) = (  -0.0165228   0.7596398   0.5106585  )
        21           Cs  tau(  21) = (   0.7522354   0.2571747   0.2211429  )
        22           Sn  tau(  22) = (   0.4922377   0.0069021  -0.0124146  )
        23           I   tau(  23) = (   0.7595289  -0.0025029   0.0473485  )
        24           I   tau(  24) = (   0.4504770   0.0131033   0.2444034  )
        25           I   tau(  25) = (   0.5169944   0.2490837  -0.0152438  )
        26           Cs  tau(  26) = (   0.7650423   0.3029496   0.7456880  )
        27           Sn  tau(  27) = (   0.4914212  -0.0101447   0.4828937  )
        28           I   tau(  28) = (   0.7656724  -0.0230023   0.4541994  )
        29           I   tau(  29) = (   0.5190209  -0.0131257   0.7427716  )
        30           I   tau(  30) = (   0.4999695   0.2462569   0.5057794  )
        31           Cs  tau(  31) = (   0.7706191   0.7423212   0.2847145  )
        32           Sn  tau(  32) = (   0.5056250   0.5013102   0.0112214  )
        33           I   tau(  33) = (   0.7535841   0.5054284   0.0146059  )
        34           I   tau(  34) = (   0.4835107   0.4882537   0.2581262  )
        35           I   tau(  35) = (   0.4844817   0.7559904   0.0177134  )
        36           Cs  tau(  36) = (   0.7283115   0.7501505   0.7732957  )
        37           Sn  tau(  37) = (   0.4957409   0.5016567   0.4913598  )
        38           I   tau(  38) = (   0.7358363   0.4714366   0.4792171  )
        39           I   tau(  39) = (   0.5009321   0.5400577   0.7719233  )
        40           I   tau(  40) = (   0.4919242   0.7456966   0.4719745  )

     number of k points=    32
                       cart. coord. in units 2pi/alat
        k(    1) = (   0.1250000   0.1250000   0.1250000), wk =   0.0625000
        k(    2) = (   0.1250000   0.1250000   0.3750000), wk =   0.0625000
        k(    3) = (   0.1250000   0.3750000   0.3750000), wk =   0.0625000
        k(    4) = (   0.3750000   0.3750000   0.3750000), wk =   0.0625000
        k(    5) = (  -0.1250000  -0.1250000   0.1250000), wk =   0.0625000
        k(    6) = (  -0.1250000   0.1250000  -0.1250000), wk =   0.0625000
        k(    7) = (   0.1250000  -0.1250000  -0.1250000), wk =   0.0625000
        k(    8) = (  -0.1250000  -0.1250000   0.3750000), wk =   0.0625000
        k(    9) = (  -0.1250000   0.1250000  -0.3750000), wk =   0.0625000
        k(   10) = (   0.1250000  -0.1250000  -0.3750000), wk =   0.0625000
        k(   11) = (   0.3750000  -0.1250000   0.1250000), wk =   0.0625000
        k(   12) = (  -0.3750000  -0.1250000  -0.1250000), wk =   0.0625000
        k(   13) = (   0.3750000   0.1250000  -0.1250000), wk =   0.0625000
        k(   14) = (  -0.3750000   0.1250000   0.1250000), wk =   0.0625000
        k(   15) = (  -0.1250000   0.3750000   0.1250000), wk =   0.0625000
        k(   16) = (  -0.1250000  -0.3750000  -0.1250000), wk =   0.0625000
        k(   17) = (   0.1250000   0.3750000  -0.1250000), wk =   0.0625000
        k(   18) = (   0.1250000  -0.3750000   0.1250000), wk =   0.0625000
        k(   19) = (  -0.1250000  -0.3750000   0.3750000), wk =   0.0625000
        k(   20) = (  -0.1250000   0.3750000  -0.3750000), wk =   0.0625000
        k(   21) = (   0.1250000  -0.3750000  -0.3750000), wk =   0.0625000
        k(   22) = (   0.3750000   0.1250000  -0.3750000), wk =   0.0625000
        k(   23) = (  -0.3750000  -0.1250000  -0.3750000), wk =   0.0625000
        k(   24) = (   0.3750000  -0.1250000   0.3750000), wk =   0.0625000
        k(   25) = (  -0.3750000   0.1250000   0.3750000), wk =   0.0625000
        k(   26) = (   0.3750000  -0.3750000   0.1250000), wk =   0.0625000
        k(   27) = (  -0.3750000  -0.3750000  -0.1250000), wk =   0.0625000
        k(   28) = (   0.3750000   0.3750000  -0.1250000), wk =   0.0625000
        k(   29) = (  -0.3750000   0.3750000   0.1250000), wk =   0.0625000
        k(   30) = (  -0.3750000  -0.3750000   0.3750000), wk =   0.0625000
        k(   31) = (  -0.3750000   0.3750000  -0.3750000), wk =   0.0625000
        k(   32) = (   0.3750000  -0.3750000  -0.3750000), wk =   0.0625000

     Dense  grid:  1061107 G-vectors     FFT dimensions: ( 128, 128, 128)

     Estimated max dynamical RAM per process >       6.82 GB

     Estimated total dynamical RAM >      27.27 GB

     Initial potential from superposition of free atoms

     starting charge  351.69472, renormalised to  352.00000
     Starting wfcs are  208 randomized atomic wfcs

     total cpu time spent up to now is       17.9 secs

     Self-consistent Calculation

     iteration #  1     ecut=    70.00 Ry     beta= 0.70
     Davidson diagonalization with overlap
     ethr =  1.00E-02,  avg # of iterations =  2.0

     Threshold (ethr) on eigenvalues was too large:
     Diagonalizing with lowered threshold

     Davidson diagonalization with overlap
     ethr =  2.16E-04,  avg # of iterations =  4.0

     total cpu time spent up to now is       39.0 secs

     total energy              =   -2256.04363347 Ry
     estimated scf accuracy    <       0.65961386 Ry

     iteration #  2     ecut=    70.00 Ry     beta= 0.70
     Davidson diagonalization with overlap
     ethr =  1.87E-04,  avg # of iterations =  3.3

     total cpu time spent up to now is       51.8 secs

     total energy              =   -2256.25116591 Ry
     estimated scf accuracy    <       0.28382834 Ry

     iteration #  3     ecut=    70.00 Ry     beta= 0.70
     Davidson diagonalization with overlap
     ethr =  8.06E-05,  avg # of iterations =  2.7

     total cpu time spent up to now is       63.6 secs

     total energy              =   -2256.30496972 Ry
     estimated scf accuracy    <       0.01644638 Ry

     iteration #  4     ecut=    70.00 Ry     beta= 0.70
     Davidson diagonalization with overlap
     ethr =  4.67E-06,  avg # of iterations =  4.2

     total cpu time spent up to now is       77.3 secs

     total energy              =   -2256.31130127 Ry
     estimated scf accuracy    <       0.00604807 Ry

     iteration #  5     ecut=    70.00 Ry     beta= 0.70
     Davidson diagonalization with overlap
     ethr =  1.72E-06,  avg # of iterations =  3.9

     total cpu time spent up to now is       89.7 secs

     total energy              =   -2256.31240028 Ry
     estimated scf accuracy    <       0.00124217 Ry

     iteration #  6     ecut=    70.00 Ry     beta= 0.70
     Davidson diagonalization with overlap
     ethr =  3.53E-07,  avg # of iterations =  3.2

     total cpu time spent up to now is      102.0 secs

     total energy              =   -2256.31260837 Ry
     estimated scf accuracy    <       0.00017701 Ry

     iteration #  7     ecut=    70.00 Ry     beta= 0.70
     Davidson diagonalization with overlap
     ethr =  5.03E-08,  avg # of iterations =  4.0

     total cpu time spent up to now is      115.5 secs

     total energy              =   -2256.31266956 Ry
     estimated scf accuracy    <       0.00001597 Ry

     iteration #  8     ecut=    70.00 Ry     beta= 0.70
     Davidson diagonalization with overlap
     ethr =  4.54E-09,  avg # of iterations =  5.1

     total cpu time spent up to now is      129.9 secs

     total energy              =   -2256.31267694 Ry
     estimated scf accuracy    <       0.00000379 Ry

     iteration #  9     ecut=    70.00 Ry     beta= 0.70
     Davidson diagonalization with overlap
     ethr =  1.08E-09,  avg # of iterations =  4.5

     total cpu time spent up to now is      144.0 secs

     total energy              =   -2256.31267832 Ry
     estimated scf accuracy    <       0.00000076 Ry

     iteration # 10     ecut=    70.00 Ry     beta= 0.70
     Davidson diagonalization with overlap
     ethr =  2.15E-10,  avg # of iterations =  4.9

     total cpu time spent up to now is      158.9 secs

     total energy              =   -2256.31267861 Ry
     estimated scf accuracy    <       0.00000012 Ry

     iteration # 11     ecut=    70.00 Ry     beta= 0.70
     Davidson diagonalization with overlap
     ethr =  3.31E-11,  avg # of iterations =  5.1

     total cpu time spent up to now is      173.8 secs

     total energy              =   -2256.31267867 Ry
     estimated scf accuracy    <       0.00000003 Ry

     iteration # 12     ecut=    70.00 Ry     beta= 0.70
     Davidson diagonalization with overlap
     ethr =  8.87E-12,  avg # of iterations =  4.7

     total cpu time spent up to now is      188.1 secs

     total energy              =   -2256.31267868 Ry
     estimated scf accuracy    <          8.3E-09 Ry

     iteration # 13     ecut=    70.00 Ry     beta= 0.70
     Davidson diagonalization with overlap
     ethr =  2.36E-12,  avg # of iterations =  4.9

     total cpu time spent up to now is      202.5 secs

     total energy              =   -2256.31267868 Ry
     estimated scf accuracy    <          5.9E-10 Ry

     iteration # 14     ecut=    70.00 Ry     beta= 0.70
     Davidson diagonalization with overlap
     ethr =  1.68E-13,  avg # of iterations =  7.6

     total cpu time spent up to now is      222.8 secs

     total energy              =   -2256.31267868 Ry
     estimated scf accuracy    <          1.6E-10 Ry

     iteration # 15     ecut=    70.00 Ry     beta= 0.70
     Davidson diagonalization with overlap
     ethr =  1.00E-13,  avg # of iterations =  2.4

     total cpu time spent up to now is      234.4 secs

     End of self-consistent calculation

          k = 0.1250 0.1250 0.1250 (132670 PWs)   bands (ev):

   -18.4669 -18.4650 -18.4299 -18.3734 -18.3207 -18.3145 -18.3121 -18.3106
   -18.3092 -18.3072 -18.3056 -18.3050 -18.3043 -18.2927 -18.2910 -18.2719
   -18.2686 -18.2658 -18.2634 -18.2624 -18.2612 -18.2562 -18.2559 -18.2512
   -18.2506 -18.2490 -18.2479 -18.2447 -18.2418 -18.2398 -18.2382 -18.2349
   -18.2338 -18.2323 -18.2219 -18.2174 -18.2152 -18.2139 -18.1811 -18.1784
   -18.1687 -18.1669 -18.1654 -18.1622 -18.1578 -18.1480 -18.1449 -18.1362
    -9.4544  -9.3335  -9.3177  -9.2525  -9.1572  -9.1392  -9.1081  -9.0234
    -8.9796  -8.9670  -8.9453  -8.8926  -8.8801  -8.8690  -8.8308  -8.8081
    -8.7931  -8.7483  -8.7405  -8.6771  -8.6391  -8.5953  -8.5497  -8.4701
    -5.2528  -5.2460  -5.2308  -5.2288  -5.2270  -5.2244  -5.2058  -5.1931
    -5.1799  -5.1420  -5.1405  -5.1308  -5.0934  -5.0852  -5.0766  -5.0372
    -5.0245  -5.0216  -5.0169  -5.0116  -5.0076  -5.0049  -5.0001  -4.9919
    -4.4459  -3.9806  -3.9376  -3.8628  -3.4411  -3.3796  -3.3141  -2.7648
    -0.7654  -0.6923  -0.6708  -0.6159  -0.5979  -0.5106  -0.4806  -0.4435
    -0.3770  -0.3438  -0.3083  -0.2142   0.4407   0.4645   0.5041   0.5828
     0.6268   0.6714   0.6993   0.7422   0.8030   0.8668   0.9154   0.9438
     0.9782   1.0042   1.0445   1.0818   1.1114   1.1423   1.1670   1.1816
     1.2217   1.2344   1.2574   1.2649   1.3023   1.3298   1.3670   1.3864
     1.4026   1.4176   1.4411   1.4637   1.5125   1.5310   1.5595   1.5859
     1.5960   1.6068   1.6410   1.6596   1.6806   1.6880   1.7214   1.7430
     1.7564   1.7987   1.8189   1.9619   2.0088   2.0195   2.0825   2.0950
     2.1261   2.1745   2.1826   2.2596   2.5800   2.6776   2.7254   3.1011

          k = 0.1250 0.1250 0.3750 (132608 PWs)   bands (ev):

   -18.4669 -18.4650 -18.4299 -18.3734 -18.3207 -18.3145 -18.3121 -18.3106
   -18.3091 -18.3072 -18.3056 -18.3050 -18.3043 -18.2927 -18.2910 -18.2719
   -18.2686 -18.2658 -18.2634 -18.2624 -18.2612 -18.2562 -18.2559 -18.2512
   -18.2506 -18.2490 -18.2479 -18.2447 -18.2418 -18.2398 -18.2382 -18.2349
   -18.2338 -18.2323 -18.2219 -18.2174 -18.2152 -18.2139 -18.1811 -18.1784
   -18.1687 -18.1669 -18.1654 -18.1622 -18.1578 -18.1480 -18.1449 -18.1362
    -9.4411  -9.3454  -9.3106  -9.2515  -9.1694  -9.1434  -9.1183  -9.0314
    -8.9823  -8.9702  -8.9450  -8.8909  -8.8736  -8.8625  -8.8224  -8.7947
    -8.7832  -8.7468  -8.7322  -8.6912  -8.6463  -8.5916  -8.5574  -8.4709
    -5.2527  -5.2459  -5.2309  -5.2288  -5.2270  -5.2241  -5.2056  -5.1931
    -5.1799  -5.1417  -5.1406  -5.1306  -5.0936  -5.0854  -5.0769  -5.0374
    -5.0246  -5.0218  -5.0168  -5.0116  -5.0075  -5.0054  -5.0000  -4.9918
    -4.3219  -4.1116  -3.8223  -3.7616  -3.5864  -3.5517  -3.2242  -2.9827
    -0.7582  -0.6801  -0.6087  -0.5382  -0.4792  -0.4243  -0.4033  -0.3542
    -0.1271  -0.0921  -0.0646   0.0447   0.3829   0.4536   0.4635   0.5075
     0.5641   0.5887   0.6236   0.6601   0.7082   0.7225   0.7504   0.8012
     0.8550   0.9026   0.9344   1.0067   1.0689   1.1028   1.1412   1.1723
     1.2095   1.2406   1.2702   1.3026   1.3137   1.3273   1.3665   1.3818
     1.4023   1.4222   1.4399   1.4673   1.4851   1.5526   1.5662   1.5697
     1.6092   1.6251   1.6637   1.6824   1.6928   1.7048   1.7259   1.7629
     1.8119   1.8295   1.8580   1.8742   1.9190   1.9500   1.9916   2.0414
     2.0908   2.1436   2.2040   2.2662   2.4075   2.4249   2.6701   2.8744

          k = 0.1250 0.3750 0.3750 (132616 PWs)   bands (ev):

   -18.4669 -18.4650 -18.4299 -18.3734 -18.3207 -18.3145 -18.3121 -18.3106
   -18.3091 -18.3072 -18.3056 -18.3050 -18.3043 -18.2927 -18.2910 -18.2719
   -18.2686 -18.2658 -18.2634 -18.2624 -18.2612 -18.2562 -18.2559 -18.2512
   -18.2506 -18.2490 -18.2479 -18.2447 -18.2418 -18.2398 -18.2382 -18.2349
   -18.2338 -18.2323 -18.2219 -18.2174 -18.2152 -18.2139 -18.1811 -18.1784
   -18.1687 -18.1669 -18.1654 -18.1622 -18.1578 -18.1480 -18.1449 -18.1362
    -9.4230  -9.3498  -9.3221  -9.2371  -9.1858  -9.1670  -9.1060  -9.0543
    -8.9806  -8.9572  -8.9440  -8.8953  -8.8633  -8.8502  -8.8270  -8.7867
    -8.7720  -8.7501  -8.7307  -8.6852  -8.6583  -8.5919  -8.5612  -8.4731
    -5.2524  -5.2460  -5.2311  -5.2284  -5.2270  -5.2243  -5.2058  -5.1930
    -5.1803  -5.1419  -5.1406  -5.1308  -5.0933  -5.0852  -5.0767  -5.0372
    -5.0230  -5.0210  -5.0167  -5.0131  -5.0079  -5.0053  -4.9997  -4.9929
    -4.1925  -4.0408  -3.8961  -3.7518  -3.6657  -3.5271  -3.3341  -3.1882
    -0.6760  -0.5572  -0.5247  -0.4426  -0.3212  -0.2781  -0.1807  -0.1286
    -0.0728  -0.0133   0.0631   0.1495   0.3086   0.4136   0.4237   0.4602
     0.4999   0.5241   0.5628   0.5857   0.6366   0.6753   0.7129   0.7372
     0.7715   0.8497   0.8901   0.9581   1.0000   1.0481   1.0766   1.1188
     1.1477   1.1817   1.1943   1.2227   1.2624   1.2943   1.3344   1.3556
     1.3771   1.4074   1.4555   1.4891   1.5296   1.5677   1.5785   1.6077
     1.6258   1.6633   1.6814   1.7028   1.7234   1.7262   1.7521   1.7738
     1.8103   1.8526   1.8758   1.8887   1.9315   1.9448   1.9888   2.0043
     2.0214   2.0522   2.0863   2.1580   2.2191   2.3354   2.4863   2.5938

          k = 0.3750 0.3750 0.3750 (132612 PWs)   bands (ev):

   -18.4669 -18.4650 -18.4299 -18.3734 -18.3207 -18.3145 -18.3121 -18.3106
   -18.3091 -18.3072 -18.3056 -18.3050 -18.3043 -18.2927 -18.2910 -18.2719
   -18.2686 -18.2658 -18.2634 -18.2624 -18.2612 -18.2562 -18.2559 -18.2512
   -18.2506 -18.2490 -18.2479 -18.2447 -18.2418 -18.2398 -18.2382 -18.2349
   -18.2338 -18.2323 -18.2219 -18.2174 -18.2152 -18.2139 -18.1811 -18.1784
   -18.1687 -18.1669 -18.1654 -18.1622 -18.1578 -18.1480 -18.1449 -18.1362
    -9.4150  -9.3387  -9.3144  -9.2650  -9.1985  -9.1559  -9.1117  -9.0628
    -9.0077  -8.9504  -8.9288  -8.8881  -8.8563  -8.8485  -8.8108  -8.7827
    -8.7692  -8.7516  -8.7314  -8.6950  -8.6603  -8.5904  -8.5636  -8.4752
    -5.2525  -5.2460  -5.2315  -5.2280  -5.2268  -5.2248  -5.2058  -5.1927
    -5.1800  -5.1420  -5.1408  -5.1308  -5.0933  -5.0850  -5.0771  -5.0372
    -5.0235  -5.0211  -5.0154  -5.0136  -5.0075  -5.0047  -4.9996  -4.9936
    -4.0710  -3.9569  -3.8687  -3.7500  -3.6992  -3.6077  -3.4739  -3.3637
    -0.4245  -0.3806  -0.3445  -0.3009  -0.2318  -0.1845  -0.1488  -0.0856
    -0.0138   0.0312   0.1135   0.2271   0.2807   0.3531   0.3879   0.4179
     0.4459   0.4743   0.5181   0.5598   0.5815   0.5996   0.6282   0.6790
     0.8141   0.8731   0.8950   0.9124   0.9774   1.0162   1.0591   1.0878
     1.1110   1.1320   1.1447   1.1674   1.1929   1.2142   1.2827   1.3233
     1.3429   1.3750   1.4238   1.4718   1.5249   1.5519   1.5788   1.6259
     1.6610   1.6873   1.7111   1.7303   1.7427   1.7629   1.7951   1.8055
     1.8548   1.8621   1.8750   1.9031   1.9201   1.9347   1.9536   1.9800
     1.9940   2.0130   2.0370   2.0729   2.0914   2.1886   2.2452   2.3333

          k =-0.1250-0.1250 0.1250 (132670 PWs)   bands (ev):

   -18.4669 -18.4650 -18.4299 -18.3734 -18.3207 -18.3145 -18.3121 -18.3106
   -18.3092 -18.3072 -18.3056 -18.3050 -18.3043 -18.2927 -18.2910 -18.2719
   -18.2686 -18.2658 -18.2634 -18.2624 -18.2612 -18.2562 -18.2559 -18.2512
   -18.2506 -18.2490 -18.2479 -18.2447 -18.2418 -18.2398 -18.2382 -18.2349
   -18.2338 -18.2323 -18.2219 -18.2174 -18.2152 -18.2139 -18.1811 -18.1784
   -18.1687 -18.1669 -18.1654 -18.1622 -18.1578 -18.1480 -18.1449 -18.1362
    -9.4551  -9.3303  -9.3176  -9.2565  -9.1619  -9.1348  -9.0956  -9.0416
    -8.9802  -8.9662  -8.9416  -8.8909  -8.8782  -8.8655  -8.8305  -8.8100
    -8.7917  -8.7553  -8.7375  -8.6768  -8.6392  -8.5949  -8.5499  -8.4701
    -5.2528  -5.2461  -5.2308  -5.2288  -5.2271  -5.2243  -5.2058  -5.1931
    -5.1799  -5.1419  -5.1406  -5.1309  -5.0934  -5.0852  -5.0766  -5.0371
    -5.0245  -5.0216  -5.0169  -5.0116  -5.0076  -5.0049  -5.0001  -4.9919
    -4.4482  -3.9579  -3.9309  -3.8955  -3.4066  -3.3776  -3.3478  -2.7621
    -0.7762  -0.7067  -0.6374  -0.6143  -0.5785  -0.5296  -0.4759  -0.4294
    -0.3824  -0.3607  -0.3118  -0.2236   0.4419   0.4570   0.5055   0.5750
     0.6309   0.6745   0.7047   0.7546   0.7938   0.8782   0.9023   0.9457
     0.9755   1.0056   1.0560   1.0729   1.1238   1.1434   1.1681   1.1890
     1.2048   1.2440   1.2537   1.2622   1.3043   1.3175   1.3686   1.3719
     1.4024   1.4250   1.4475   1.4890   1.4992   1.5283   1.5591   1.5922
     1.6079   1.6233   1.6453   1.6569   1.6603   1.6800   1.6979   1.7442
     1.7576   1.8005   1.8126   1.9655   2.0088   2.0272   2.0606   2.0988
     2.1274   2.1912   2.2031   2.2578   2.5735   2.6809   2.7175   3.0756

          k =-0.1250 0.1250-0.1250 (132670 PWs)   bands (ev):

   -18.4669 -18.4650 -18.4299 -18.3734 -18.3207 -18.3145 -18.3121 -18.3106
   -18.3092 -18.3072 -18.3056 -18.3050 -18.3043 -18.2927 -18.2910 -18.2719
   -18.2686 -18.2658 -18.2634 -18.2624 -18.2612 -18.2562 -18.2559 -18.2512
   -18.2506 -18.2490 -18.2479 -18.2447 -18.2418 -18.2398 -18.2382 -18.2349
   -18.2338 -18.2323 -18.2219 -18.2174 -18.2152 -18.2139 -18.1811 -18.1784
   -18.1687 -18.1669 -18.1654 -18.1622 -18.1578 -18.1480 -18.1449 -18.1362
    -9.4537  -9.3436  -9.3075  -9.2507  -9.1663  -9.1388  -9.0953  -9.0327
    -8.9766  -8.9679  -8.9473  -8.8917  -8.8803  -8.8673  -8.8326  -8.8092
    -8.7863  -8.7517  -8.7413  -8.6768  -8.6391  -8.5949  -8.5500  -8.4701
    -5.2527  -5.2460  -5.2308  -5.2288  -5.2271  -5.2244  -5.2058  -5.1932
    -5.1798  -5.1419  -5.1407  -5.1308  -5.0934  -5.0852  -5.0766  -5.0372
    -5.0246  -5.0216  -5.0168  -5.0117  -5.0074  -5.0051  -4.9999  -4.9920
    -4.4468  -3.9825  -3.9170  -3.8829  -3.4181  -3.3938  -3.3219  -2.7633
    -0.7819  -0.7009  -0.6459  -0.6090  -0.5862  -0.5118  -0.4727  -0.4397
    -0.3888  -0.3486  -0.3169  -0.2249   0.4398   0.4585   0.5109   0.5794
     0.6335   0.6602   0.6932   0.7554   0.7987   0.8746   0.9357   0.9437
     0.9804   1.0226   1.0479   1.0763   1.1101   1.1308   1.1509   1.1737
     1.2205   1.2353   1.2479   1.2783   1.2894   1.3266   1.3479   1.3776
     1.4137   1.4221   1.4505   1.4868   1.5137   1.5366   1.5503   1.5819
     1.6029   1.6210   1.6487   1.6624   1.6756   1.6999   1.7065   1.7382
     1.7493   1.7955   1.8194   1.9602   2.0146   2.0251   2.0607   2.0871
     2.1194   2.1824   2.1993   2.2496   2.5959   2.6498   2.7376   3.1045

          k = 0.1250-0.1250-0.1250 (132670 PWs)   bands (ev):

   -18.4669 -18.4650 -18.4299 -18.3734 -18.3207 -18.3145 -18.3121 -18.3106
   -18.3092 -18.3072 -18.3056 -18.3050 -18.3043 -18.2927 -18.2910 -18.2719
   -18.2686 -18.2658 -18.2634 -18.2624 -18.2612 -18.2562 -18.2559 -18.2512
   -18.2506 -18.2490 -18.2479 -18.2447 -18.2418 -18.2398 -18.2382 -18.2349
   -18.2338 -18.2323 -18.2219 -18.2174 -18.2152 -18.2139 -18.1811 -18.1784
   -18.1687 -18.1669 -18.1654 -18.1622 -18.1578 -18.1480 -18.1449 -18.1362
    -9.4537  -9.3448  -9.3063  -9.2486  -9.1701  -9.1388  -9.0943  -9.0298
    -8.9853  -8.9625  -8.9476  -8.8915  -8.8789  -8.8651  -8.8298  -8.8126
    -8.7897  -8.7525  -8.7393  -8.6762  -8.6395  -8.5949  -8.5500  -8.4701
    -5.2527  -5.2460  -5.2308  -5.2288  -5.2272  -5.2244  -5.2058  -5.1932
    -5.1798  -5.1420  -5.1406  -5.1308  -5.0935  -5.0851  -5.0766  -5.0372
    -5.0246  -5.0216  -5.0168  -5.0116  -5.0073  -5.0052  -4.9998  -4.9921
    -4.4470  -3.9749  -3.9273  -3.8796  -3.4381  -3.3702  -3.3256  -2.7635
    -0.7851  -0.6857  -0.6519  -0.6309  -0.5786  -0.5179  -0.4834  -0.4098
    -0.3885  -0.3596  -0.3067  -0.2231   0.4358   0.4608   0.5102   0.5841
     0.6223   0.6643   0.6884   0.7547   0.7981   0.8702   0.9124   0.9344
     0.9835   1.0287   1.0695   1.0873   1.0987   1.1391   1.1733   1.1865
     1.2204   1.2295   1.2546   1.2734   1.2953   1.3244   1.3476   1.3660
     1.4071   1.4213   1.4634   1.4667   1.5006   1.5344   1.5466   1.5910
     1.6074   1.6205   1.6428   1.6510   1.6670   1.6848   1.7171   1.7400
     1.7608   1.8037   1.8210   1.9725   2.0032   2.0325   2.0568   2.0916
     2.1235   2.1855   2.1956   2.2497   2.5614   2.6822   2.7452   3.0959

          k =-0.1250-0.1250 0.3750 (132608 PWs)   bands (ev):

   -18.4669 -18.4650 -18.4299 -18.3734 -18.3207 -18.3145 -18.3121 -18.3106
   -18.3091 -18.3072 -18.3056 -18.3050 -18.3043 -18.2927 -18.2910 -18.2719
   -18.2686 -18.2658 -18.2634 -18.2624 -18.2612 -18.2562 -18.2559 -18.2512
   -18.2506 -18.2490 -18.2479 -18.2447 -18.2418 -18.2398 -18.2382 -18.2349
   -18.2338 -18.2323 -18.2219 -18.2174 -18.2152 -18.2139 -18.1811 -18.1784
   -18.1687 -18.1669 -18.1654 -18.1622 -18.1578 -18.1480 -18.1449 -18.1362
    -9.4421  -9.3417  -9.3110  -9.2553  -9.1728  -9.1412  -9.1054  -9.0473
    -8.9859  -8.9652  -8.9436  -8.8901  -8.8714  -8.8594  -8.8214  -8.7939
    -8.7850  -8.7518  -8.7308  -8.6907  -8.6464  -8.5911  -8.5576  -8.4708
    -5.2527  -5.2459  -5.2309  -5.2287  -5.2271  -5.2240  -5.2056  -5.1931
    -5.1799  -5.1416  -5.1407  -5.1307  -5.0936  -5.0854  -5.0769  -5.0372
    -5.0247  -5.0218  -5.0168  -5.0116  -5.0076  -5.0053  -5.0001  -4.9918
    -4.3289  -4.0951  -3.8260  -3.7839  -3.5740  -3.5355  -3.2446  -2.9746
    -0.7619  -0.6800  -0.6045  -0.5440  -0.4731  -0.4152  -0.3962  -0.3402
    -0.1457  -0.1080  -0.0708   0.0357   0.3754   0.4471   0.4815   0.5222
     0.5540   0.5862   0.6230   0.6588   0.7041   0.7352   0.7622   0.8014
     0.8568   0.8942   0.9486   1.0202   1.0632   1.1029   1.1361   1.1706
     1.2127   1.2272   1.2582   1.2822   1.3343   1.3454   1.3617   1.3806
     1.3885   1.4169   1.4573   1.4716   1.4945   1.5224   1.5718   1.5943
     1.6050   1.6321   1.6481   1.6662   1.6854   1.7158   1.7369   1.7674
     1.7929   1.8336   1.8487   1.8708   1.9346   1.9497   1.9966   2.0497
     2.0798   2.1493   2.2256   2.2820   2.3616   2.4329   2.6875   2.8449

          k =-0.1250 0.1250-0.3750 (132608 PWs)   bands (ev):

   -18.4669 -18.4650 -18.4299 -18.3734 -18.3207 -18.3145 -18.3121 -18.3106
   -18.3091 -18.3072 -18.3056 -18.3050 -18.3043 -18.2927 -18.2910 -18.2719
   -18.2686 -18.2658 -18.2634 -18.2624 -18.2612 -18.2562 -18.2559 -18.2512
   -18.2506 -18.2490 -18.2479 -18.2447 -18.2418 -18.2398 -18.2382 -18.2349
   -18.2338 -18.2323 -18.2219 -18.2174 -18.2152 -18.2139 -18.1811 -18.1784
   -18.1687 -18.1669 -18.1654 -18.1622 -18.1578 -18.1480 -18.1449 -18.1362
    -9.4405  -9.3442  -9.3181  -9.2419  -9.1746  -9.1405  -9.1175  -9.0350
    -8.9804  -8.9691  -8.9502  -8.8894  -8.8722  -8.8606  -8.8249  -8.7954
    -8.7774  -8.7500  -8.7325  -8.6914  -8.6462  -8.5914  -8.5576  -8.4709
    -5.2526  -5.2459  -5.2309  -5.2288  -5.2270  -5.2241  -5.2056  -5.1932
    -5.1798  -5.1416  -5.1407  -5.1306  -5.0936  -5.0854  -5.0769  -5.0373
    -5.0248  -5.0218  -5.0166  -5.0117  -5.0074  -5.0055  -4.9999  -4.9919
    -4.3250  -4.1049  -3.8284  -3.7650  -3.5819  -3.5447  -3.2347  -2.9780
    -0.7732  -0.6711  -0.5697  -0.5616  -0.4848  -0.4249  -0.3983  -0.3450
    -0.1321  -0.1016  -0.0718   0.0289   0.3894   0.4585   0.4657   0.5114
     0.5597   0.5990   0.6141   0.6707   0.6945   0.7156   0.7720   0.7941
     0.8545   0.9176   0.9318   1.0415   1.0605   1.0740   1.1419   1.1820
     1.2021   1.2356   1.2489   1.2886   1.3126   1.3355   1.3648   1.3807
     1.3999   1.4244   1.4496   1.4680   1.4999   1.5260   1.5722   1.5939
     1.6189   1.6285   1.6590   1.6796   1.7081   1.7143   1.7346   1.7603
     1.8063   1.8285   1.8510   1.8705   1.9161   1.9415   1.9911   2.0477
     2.0683   2.1440   2.1958   2.2758   2.3901   2.4219   2.7028   2.8670

          k = 0.1250-0.1250-0.3750 (132608 PWs)   bands (ev):

   -18.4669 -18.4650 -18.4299 -18.3734 -18.3207 -18.3145 -18.3121 -18.3106
   -18.3091 -18.3072 -18.3056 -18.3050 -18.3043 -18.2927 -18.2910 -18.2719
   -18.2686 -18.2658 -18.2634 -18.2624 -18.2612 -18.2562 -18.2559 -18.2512
   -18.2506 -18.2490 -18.2479 -18.2447 -18.2418 -18.2398 -18.2382 -18.2349
   -18.2338 -18.2323 -18.2219 -18.2174 -18.2152 -18.2139 -18.1811 -18.1784
   -18.1687 -18.1669 -18.1654 -18.1622 -18.1578 -18.1480 -18.1449 -18.1362
    -9.4404  -9.3462  -9.3160  -9.2395  -9.1785  -9.1430  -9.1142  -9.0322
    -8.9886  -8.9645  -8.9502  -8.8888  -8.8716  -8.8590  -8.8229  -8.7942
    -8.7839  -8.7507  -8.7311  -8.6902  -8.6467  -8.5912  -8.5576  -8.4708
    -5.2527  -5.2459  -5.2309  -5.2287  -5.2271  -5.2241  -5.2056  -5.1932
    -5.1798  -5.1417  -5.1406  -5.1306  -5.0937  -5.0853  -5.0770  -5.0373
    -5.0248  -5.0217  -5.0167  -5.0117  -5.0073  -5.0056  -4.9998  -4.9919
    -4.3254  -4.1031  -3.8268  -3.7673  -3.5904  -3.5384  -3.2320  -2.9790
    -0.7737  -0.6681  -0.5783  -0.5636  -0.4896  -0.4266  -0.3886  -0.3438
    -0.1378  -0.0991  -0.0614   0.0450   0.3722   0.4403   0.4699   0.5339
     0.5625   0.5799   0.6218   0.6505   0.6900   0.7199   0.7695   0.8001
     0.8467   0.9123   0.9338   1.0534   1.0657   1.0913   1.1562   1.1747
     1.2129   1.2282   1.2600   1.2854   1.2979   1.3281   1.3525   1.3846
     1.4168   1.4271   1.4468   1.4808   1.4931   1.5358   1.5610   1.5993
     1.6114   1.6342   1.6439   1.6575   1.6747   1.7133   1.7396   1.7760
     1.8047   1.8325   1.8514   1.8739   1.9345   1.9535   1.9893   2.0385
     2.0687   2.1473   2.2091   2.2811   2.3541   2.4331   2.7226   2.8540

          k = 0.3750-0.1250 0.1250 (132608 PWs)   bands (ev):

   -18.4669 -18.4650 -18.4299 -18.3734 -18.3207 -18.3145 -18.3121 -18.3106
   -18.3091 -18.3072 -18.3056 -18.3050 -18.3043 -18.2927 -18.2910 -18.2719
   -18.2686 -18.2658 -18.2634 -18.2624 -18.2612 -18.2562 -18.2559 -18.2512
   -18.2506 -18.2490 -18.2479 -18.2447 -18.2418 -18.2398 -18.2382 -18.2349
   -18.2338 -18.2323 -18.2219 -18.2174 -18.2152 -18.2139 -18.1811 -18.1784
   -18.1687 -18.1669 -18.1654 -18.1622 -18.1578 -18.1480 -18.1449 -18.1362
    -9.4374  -9.3617  -9.2972  -9.2459  -9.1910  -9.1400  -9.1040  -9.0246
    -8.9829  -8.9715  -8.9426  -8.8909  -8.8800  -8.8649  -8.8343  -8.7935
    -8.7694  -8.7470  -8.7424  -8.6877  -8.6429  -8.5954  -8.5515  -8.4734
    -5.2521  -5.2457  -5.2311  -5.2281  -5.2272  -5.2248  -5.2057  -5.1932
    -5.1798  -5.1419  -5.1410  -5.1308  -5.0934  -5.0851  -5.0767  -5.0369
    -5.0236  -5.0216  -5.0168  -5.0121  -5.0077  -5.0051  -5.0000  -4.9930
    -4.3232  -4.1260  -3.8072  -3.7717  -3.5770  -3.5553  -3.2114  -2.9723
    -0.6945  -0.6523  -0.6145  -0.5831  -0.5716  -0.4796  -0.4495  -0.4064
    -0.1321  -0.0554   0.0183   0.0731   0.3497   0.4573   0.4970   0.5143
     0.5672   0.5985   0.6141   0.6379   0.6790   0.7128   0.7631   0.8246
     0.8917   0.9055   1.0115   1.0462   1.0644   1.1040   1.1323   1.1513
     1.1681   1.2061   1.2428   1.2691   1.3065   1.3154   1.3579   1.3696
     1.4069   1.4432   1.4546   1.4905   1.5230   1.5372   1.5705   1.5866
     1.6153   1.6433   1.6563   1.6992   1.7134   1.7197   1.7524   1.7778
     1.8046   1.8236   1.8427   1.8797   1.9259   1.9477   1.9739   2.0401
     2.0665   2.1541   2.1858   2.2577   2.3774   2.4851   2.7039   2.8737

          k =-0.3750-0.1250-0.1250 (132608 PWs)   bands (ev):

   -18.4669 -18.4650 -18.4299 -18.3734 -18.3207 -18.3145 -18.3121 -18.3106
   -18.3091 -18.3072 -18.3056 -18.3050 -18.3043 -18.2927 -18.2910 -18.2719
   -18.2686 -18.2658 -18.2634 -18.2624 -18.2612 -18.2562 -18.2559 -18.2512
   -18.2506 -18.2490 -18.2479 -18.2447 -18.2418 -18.2398 -18.2382 -18.2349
   -18.2338 -18.2323 -18.2219 -18.2174 -18.2152 -18.2139 -18.1811 -18.1784
   -18.1687 -18.1669 -18.1654 -18.1622 -18.1578 -18.1480 -18.1449 -18.1362
    -9.4388  -9.3545  -9.3042  -9.2501  -9.1818  -9.1376  -9.1143  -9.0154
    -8.9907  -8.9697  -8.9401  -8.8912  -8.8799  -8.8659  -8.8323  -8.7962
    -8.7727  -8.7448  -8.7403  -8.6884  -8.6427  -8.5957  -8.5513  -8.4734
    -5.2522  -5.2458  -5.2311  -5.2281  -5.2271  -5.2248  -5.2057  -5.1931
    -5.1799  -5.1420  -5.1408  -5.1308  -5.0935  -5.0851  -5.0767  -5.0369
    -5.0235  -5.0216  -5.0169  -5.0122  -5.0078  -5.0049  -5.0002  -4.9930
    -4.3223  -4.1234  -3.8337  -3.7463  -3.6036  -3.5284  -3.2131  -2.9733
    -0.6803  -0.6458  -0.6386  -0.5918  -0.5698  -0.4836  -0.4519  -0.3918
    -0.1344  -0.0648   0.0286   0.0860   0.3617   0.4444   0.5018   0.5374
     0.5505   0.5853   0.6059   0.6458   0.6826   0.7256   0.7629   0.8198
     0.8498   0.9176   1.0014   1.0171   1.0640   1.1039   1.1322   1.1704
     1.1887   1.2279   1.2530   1.2770   1.2829   1.3242   1.3664   1.3777
     1.4063   1.4308   1.4693   1.4734   1.5101   1.5303   1.5689   1.5931
     1.6171   1.6367   1.6537   1.6934   1.7130   1.7208   1.7555   1.7812
     1.7945   1.8079   1.8519   1.8887   1.9196   1.9550   2.0134   2.0332
     2.0744   2.1375   2.1597   2.2779   2.3628   2.4914   2.7139   2.8715

          k = 0.3750 0.1250-0.1250 (132608 PWs)   bands (ev):

   -18.4669 -18.4650 -18.4299 -18.3734 -18.3207 -18.3145 -18.3121 -18.3106
   -18.3091 -18.3072 -18.3056 -18.3050 -18.3043 -18.2927 -18.2910 -18.2719
   -18.2686 -18.2658 -18.2634 -18.2624 -18.2612 -18.2562 -18.2559 -18.2512
   -18.2506 -18.2490 -18.2479 -18.2447 -18.2418 -18.2398 -18.2382 -18.2349
   -18.2338 -18.2323 -18.2219 -18.2174 -18.2152 -18.2139 -18.1811 -18.1784
   -18.1687 -18.1669 -18.1654 -18.1622 -18.1578 -18.1480 -18.1449 -18.1362
    -9.4398  -9.3524  -9.3033  -9.2525  -9.1845  -9.1356  -9.1064  -9.0321
    -8.9867  -8.9678  -8.9383  -8.8900  -8.8785  -8.8634  -8.8321  -8.7936
    -8.7774  -8.7504  -8.7362  -8.6877  -8.6430  -8.5954  -8.5514  -8.4734
    -5.2522  -5.2458  -5.2311  -5.2280  -5.2273  -5.2247  -5.2057  -5.1931
    -5.1799  -5.1419  -5.1409  -5.1309  -5.0935  -5.0850  -5.0767  -5.0368
    -5.0235  -5.0216  -5.0169  -5.0122  -5.0078  -5.0048  -5.0003  -4.9930
    -4.3275  -4.1160  -3.8151  -3.7774  -3.5780  -3.5403  -3.2215  -2.9683
    -0.6950  -0.6544  -0.6075  -0.5890  -0.5609  -0.4876  -0.4482  -0.4077
    -0.1350  -0.0625   0.0213   0.0832   0.3552   0.4403   0.5036   0.5305
     0.5589   0.5644   0.6098   0.6582   0.6939   0.7022   0.7786   0.8179
     0.8798   0.9160   1.0140   1.0387   1.0542   1.0997   1.1288   1.1542
     1.1892   1.2111   1.2449   1.2619   1.2920   1.3180   1.3636   1.3772
     1.4219   1.4442   1.4619   1.4831   1.5196   1.5338   1.5751   1.5867
     1.6298   1.6407   1.6479   1.6845   1.6998   1.7199   1.7478   1.7641
     1.7837   1.8211   1.8478   1.8930   1.9320   1.9584   1.9929   2.0333
     2.0816   2.1539   2.1896   2.2699   2.3597   2.4851   2.7091   2.8485

          k =-0.3750 0.1250 0.1250 (132608 PWs)   bands (ev):

   -18.4669 -18.4650 -18.4299 -18.3734 -18.3207 -18.3145 -18.3121 -18.3106
   -18.3091 -18.3072 -18.3056 -18.3050 -18.3043 -18.2927 -18.2910 -18.2719
   -18.2686 -18.2658 -18.2634 -18.2624 -18.2612 -18.2562 -18.2559 -18.2512
   -18.2506 -18.2490 -18.2479 -18.2447 -18.2418 -18.2398 -18.2382 -18.2349
   -18.2338 -18.2323 -18.2219 -18.2174 -18.2152 -18.2139 -18.1811 -18.1784
   -18.1687 -18.1669 -18.1654 -18.1622 -18.1578 -18.1480 -18.1449 -18.1362
    -9.4375  -9.3617  -9.2969  -9.2445  -9.1934  -9.1424  -9.0990  -9.0220
    -8.9959  -8.9654  -8.9420  -8.8898  -8.8791  -8.8628  -8.8332  -8.7938
    -8.7723  -8.7531  -8.7371  -8.6868  -8.6433  -8.5952  -8.5516  -8.4734
    -5.2522  -5.2457  -5.2311  -5.2280  -5.2273  -5.2247  -5.2057  -5.1933
    -5.1798  -5.1420  -5.1408  -5.1308  -5.0935  -5.0850  -5.0767  -5.0369
    -5.0237  -5.0215  -5.0169  -5.0120  -5.0077  -5.0052  -4.9999  -4.9931
    -4.3257  -4.1161  -3.8297  -3.7617  -3.6016  -3.5186  -3.2207  -2.9697
    -0.6931  -0.6449  -0.6258  -0.6083  -0.5565  -0.4900  -0.4339  -0.3941
    -0.1308  -0.0520   0.0190   0.0700   0.3445   0.4557   0.4929   0.5215
     0.5666   0.5802   0.6118   0.6492   0.6780   0.7193   0.7537   0.8253
     0.8771   0.9256   1.0051   1.0343   1.0752   1.1047   1.1235   1.1675
     1.1864   1.2157   1.2514   1.2716   1.2917   1.3198   1.3530   1.3640
     1.4024   1.4466   1.4595   1.4762   1.5048   1.5284   1.5813   1.6049
     1.6309   1.6477   1.6554   1.6740   1.7061   1.7243   1.7430   1.7548
     1.8016   1.8326   1.8487   1.8823   1.9447   1.9505   1.9826   2.0353
     2.0700   2.1466   2.1996   2.2423   2.3586   2.4973   2.7243   2.8649

          k =-0.1250 0.3750 0.1250 (132608 PWs)   bands (ev):

   -18.4669 -18.4650 -18.4299 -18.3734 -18.3207 -18.3145 -18.3121 -18.3106
   -18.3091 -18.3072 -18.3056 -18.3050 -18.3043 -18.2927 -18.2910 -18.2719
   -18.2686 -18.2658 -18.2634 -18.2624 -18.2612 -18.2562 -18.2559 -18.2512
   -18.2506 -18.2490 -18.2479 -18.2447 -18.2418 -18.2398 -18.2382 -18.2349
   -18.2338 -18.2323 -18.2219 -18.2174 -18.2152 -18.2139 -18.1811 -18.1784
   -18.1687 -18.1669 -18.1654 -18.1622 -18.1578 -18.1480 -18.1449 -18.1362
    -9.4327  -9.3686  -9.2982  -9.2286  -9.2034  -9.1480  -9.1042  -9.0254
    -8.9840  -8.9630  -8.9429  -8.8942  -8.8725  -8.8534  -8.8334  -8.8163
    -8.7708  -8.7565  -8.7282  -8.6738  -8.6522  -8.5909  -8.5586  -8.4722
    -5.2524  -5.2459  -5.2309  -5.2283  -5.2271  -5.2246  -5.2058  -5.1931
    -5.1801  -5.1420  -5.1403  -5.1308  -5.0936  -5.0850  -5.0766  -5.0372
    -5.0228  -5.0213  -5.0163  -5.0135  -5.0080  -5.0051  -4.9999  -4.9930
    -4.3156  -4.1037  -3.8150  -3.7802  -3.5897  -3.5535  -3.2283  -2.9892
    -0.7201  -0.6407  -0.6077  -0.5587  -0.5089  -0.4609  -0.4047  -0.3186
    -0.1385  -0.0801  -0.0379   0.0525   0.3857   0.4516   0.4832   0.5268
     0.5433   0.5680   0.6108   0.6331   0.6647   0.7075   0.7797   0.8026
     0.8574   0.9149   0.9682   1.0280   1.0569   1.1068   1.1330   1.1608
     1.2080   1.2202   1.2399   1.2533   1.2945   1.3268   1.3440   1.3891
     1.4239   1.4488   1.4799   1.5057   1.5371   1.5495   1.5617   1.5927
     1.6049   1.6172   1.6548   1.6637   1.6963   1.7092   1.7302   1.7554
     1.8019   1.8477   1.8802   1.8922   1.9391   1.9798   2.0010   2.0417
     2.0511   2.0954   2.1638   2.2242   2.3614   2.4595   2.6775   2.8266

          k =-0.1250-0.3750-0.1250 (132608 PWs)   bands (ev):

   -18.4669 -18.4650 -18.4299 -18.3734 -18.3207 -18.3145 -18.3121 -18.3106
   -18.3091 -18.3072 -18.3056 -18.3050 -18.3043 -18.2927 -18.2910 -18.2719
   -18.2686 -18.2658 -18.2634 -18.2624 -18.2612 -18.2562 -18.2559 -18.2512
   -18.2506 -18.2490 -18.2479 -18.2447 -18.2418 -18.2398 -18.2382 -18.2349
   -18.2338 -18.2323 -18.2219 -18.2174 -18.2152 -18.2139 -18.1811 -18.1784
   -18.1687 -18.1669 -18.1654 -18.1622 -18.1578 -18.1480 -18.1449 -18.1362
    -9.4348  -9.3604  -9.3052  -9.2384  -9.1906  -9.1491  -9.1062  -9.0248
    -8.9797  -8.9623  -8.9449  -8.8954  -8.8754  -8.8588  -8.8293  -8.8107
    -8.7786  -8.7512  -8.7278  -8.6748  -8.6516  -8.5914  -8.5583  -8.4722
    -5.2525  -5.2459  -5.2309  -5.2283  -5.2270  -5.2247  -5.2058  -5.1930
    -5.1803  -5.1420  -5.1403  -5.1309  -5.0935  -5.0850  -5.0766  -5.0372
    -5.0229  -5.0209  -5.0168  -5.0134  -5.0079  -5.0050  -5.0001  -4.9929
    -4.3149  -4.1009  -3.8441  -3.7501  -3.6158  -3.5277  -3.2316  -2.9902
    -0.6992  -0.6455  -0.6234  -0.5662  -0.5061  -0.4604  -0.4102  -0.3115
    -0.1483  -0.0988  -0.0082   0.0555   0.4014   0.4629   0.4912   0.5084
     0.5326   0.5741   0.5952   0.6242   0.6938   0.7153   0.7695   0.7885
     0.8786   0.8903   0.9691   1.0107   1.0813   1.0922   1.1188   1.1739
     1.1946   1.2203   1.2432   1.2605   1.2866   1.3355   1.3618   1.3872
     1.4163   1.4493   1.4828   1.5034   1.5179   1.5400   1.5700   1.5864
     1.6211   1.6352   1.6478   1.6710   1.6948   1.7116   1.7228   1.7594
     1.8119   1.8372   1.8726   1.8972   1.9308   1.9870   2.0214   2.0376
     2.0593   2.0764   2.1792   2.2094   2.3732   2.4198   2.7111   2.8172

          k = 0.1250 0.3750-0.1250 (132608 PWs)   bands (ev):

   -18.4669 -18.4650 -18.4299 -18.3734 -18.3207 -18.3145 -18.3121 -18.3106
   -18.3091 -18.3072 -18.3056 -18.3050 -18.3043 -18.2927 -18.2910 -18.2719
   -18.2686 -18.2658 -18.2634 -18.2624 -18.2612 -18.2562 -18.2559 -18.2512
   -18.2506 -18.2490 -18.2479 -18.2447 -18.2418 -18.2398 -18.2382 -18.2349
   -18.2338 -18.2323 -18.2219 -18.2174 -18.2152 -18.2139 -18.1811 -18.1784
   -18.1687 -18.1669 -18.1654 -18.1622 -18.1578 -18.1480 -18.1449 -18.1362
    -9.4357  -9.3585  -9.3048  -9.2426  -9.1873  -9.1454  -9.1064  -9.0347
    -8.9805  -8.9645  -8.9383  -8.8935  -8.8705  -8.8574  -8.8314  -8.8136
    -8.7771  -8.7541  -8.7279  -8.6745  -8.6517  -8.5910  -8.5584  -8.4722
    -5.2525  -5.2460  -5.2309  -5.2283  -5.2270  -5.2246  -5.2059  -5.1930
    -5.1802  -5.1419  -5.1404  -5.1309  -5.0935  -5.0850  -5.0766  -5.0371
    -5.0230  -5.0208  -5.0167  -5.0135  -5.0079  -5.0049  -5.0002  -4.9928
    -4.3194  -4.0940  -3.8292  -3.7804  -3.5802  -3.5465  -3.2413  -2.9844
    -0.7165  -0.6491  -0.5949  -0.5546  -0.5163  -0.4574  -0.3987  -0.3221
    -0.1441  -0.1054  -0.0303   0.0487   0.4003   0.4634   0.4967   0.5098
     0.5406   0.5656   0.5911   0.6357   0.6922   0.7289   0.7633   0.7840
     0.8892   0.9109   0.9653   1.0027   1.0639   1.0984   1.1245   1.1492
     1.1977   1.2337   1.2426   1.2547   1.2949   1.3215   1.3499   1.3964
     1.4362   1.4518   1.4811   1.5105   1.5333   1.5423   1.5729   1.5789
     1.6088   1.6254   1.6579   1.6751   1.7018   1.7072   1.7182   1.7454
     1.8154   1.8221   1.8624   1.8828   1.9300   1.9921   2.0165   2.0390
     2.0716   2.0969   2.1690   2.2382   2.3839   2.4164   2.6920   2.7971

          k = 0.1250-0.3750 0.1250 (132608 PWs)   bands (ev):

   -18.4669 -18.4650 -18.4299 -18.3734 -18.3207 -18.3145 -18.3121 -18.3106
   -18.3091 -18.3072 -18.3056 -18.3050 -18.3043 -18.2927 -18.2910 -18.2719
   -18.2686 -18.2658 -18.2634 -18.2624 -18.2612 -18.2562 -18.2559 -18.2512
   -18.2506 -18.2490 -18.2479 -18.2447 -18.2418 -18.2398 -18.2382 -18.2349
   -18.2338 -18.2323 -18.2219 -18.2174 -18.2152 -18.2139 -18.1811 -18.1784
   -18.1687 -18.1669 -18.1654 -18.1622 -18.1578 -18.1480 -18.1449 -18.1362
    -9.4332  -9.3666  -9.2993  -9.2338  -9.2004  -9.1487  -9.0970  -9.0328
    -8.9747  -8.9656  -8.9468  -8.8947  -8.8778  -8.8520  -8.8336  -8.8114
    -8.7700  -8.7570  -8.7288  -8.6744  -8.6519  -8.5909  -8.5586  -8.4722
    -5.2524  -5.2459  -5.2309  -5.2283  -5.2270  -5.2247  -5.2058  -5.1931
    -5.1801  -5.1419  -5.1404  -5.1309  -5.0935  -5.0851  -5.0766  -5.0372
    -5.0227  -5.0214  -5.0162  -5.0136  -5.0080  -5.0050  -4.9999  -4.9929
    -4.3180  -4.0946  -3.8383  -3.7734  -3.5920  -3.5322  -3.2411  -2.9858
    -0.7080  -0.6516  -0.6137  -0.5584  -0.5101  -0.4545  -0.3979  -0.3121
    -0.1334  -0.0967  -0.0483   0.0423   0.3856   0.4640   0.4842   0.5245
     0.5409   0.5842   0.6087   0.6294   0.6775   0.7149   0.7704   0.7968
     0.8852   0.9061   0.9709   1.0083   1.0711   1.1005   1.1193   1.1607
     1.1911   1.2045   1.2426   1.2592   1.2879   1.3246   1.3639   1.3972
     1.4085   1.4582   1.4730   1.5013   1.5161   1.5676   1.5723   1.5898
     1.6182   1.6451   1.6534   1.6776   1.7077   1.7118   1.7194   1.7481
     1.8211   1.8241   1.8562   1.8709   1.9465   1.9913   2.0044   2.0435
     2.0466   2.0922   2.1648   2.2216   2.3624   2.4399   2.6940   2.8322

          k =-0.1250-0.3750 0.3750 (132616 PWs)   bands (ev):

   -18.4669 -18.4650 -18.4299 -18.3734 -18.3207 -18.3145 -18.3121 -18.3106
   -18.3091 -18.3072 -18.3056 -18.3050 -18.3043 -18.2927 -18.2910 -18.2719
   -18.2686 -18.2658 -18.2634 -18.2624 -18.2612 -18.2562 -18.2559 -18.2512
   -18.2506 -18.2490 -18.2479 -18.2447 -18.2418 -18.2398 -18.2382 -18.2349
   -18.2338 -18.2323 -18.2219 -18.2174 -18.2152 -18.2139 -18.1811 -18.1784
   -18.1687 -18.1669 -18.1654 -18.1622 -18.1578 -18.1480 -18.1449 -18.1362
    -9.4244  -9.3447  -9.3251  -9.2409  -9.1841  -9.1615  -9.1049  -9.0630
    -8.9842  -8.9554  -8.9411  -8.8937  -8.8595  -8.8475  -8.8287  -8.7904
    -8.7699  -8.7534  -8.7302  -8.6852  -8.6582  -8.5915  -8.5613  -8.4731
    -5.2524  -5.2460  -5.2311  -5.2284  -5.2270  -5.2242  -5.2058  -5.1930
    -5.1803  -5.1418  -5.1407  -5.1309  -5.0933  -5.0851  -5.0767  -5.0371
    -5.0231  -5.0209  -5.0167  -5.0132  -5.0080  -5.0052  -4.9998  -4.9929
    -4.2071  -3.9855  -3.9425  -3.7484  -3.6764  -3.4716  -3.3967  -3.1684
    -0.6811  -0.5597  -0.5184  -0.4406  -0.3207  -0.2334  -0.1647  -0.1520
    -0.0568  -0.0337   0.0246   0.0880   0.3306   0.4019   0.4513   0.4783
     0.5191   0.5363   0.5580   0.5734   0.6415   0.6888   0.6956   0.7248
     0.7837   0.8721   0.8973   0.9676   0.9851   1.0382   1.0602   1.1040
     1.1284   1.1775   1.2105   1.2449   1.2758   1.2997   1.3234   1.3506
     1.3772   1.4107   1.4574   1.4958   1.5371   1.5418   1.5780   1.5978
     1.6292   1.6502   1.6884   1.7094   1.7160   1.7332   1.7554   1.7815
     1.8037   1.8478   1.8751   1.8987   1.9150   1.9395   1.9675   2.0051
     2.0473   2.0723   2.0984   2.1524   2.2261   2.3539   2.4734   2.5624

          k =-0.1250 0.3750-0.3750 (132616 PWs)   bands (ev):

   -18.4669 -18.4650 -18.4299 -18.3734 -18.3207 -18.3145 -18.3121 -18.3106
   -18.3091 -18.3072 -18.3056 -18.3050 -18.3043 -18.2927 -18.2910 -18.2719
   -18.2686 -18.2658 -18.2634 -18.2624 -18.2612 -18.2562 -18.2559 -18.2512
   -18.2506 -18.2490 -18.2479 -18.2447 -18.2418 -18.2398 -18.2382 -18.2349
   -18.2338 -18.2323 -18.2219 -18.2174 -18.2152 -18.2139 -18.1811 -18.1784
   -18.1687 -18.1669 -18.1654 -18.1622 -18.1578 -18.1480 -18.1449 -18.1362
    -9.4219  -9.3507  -9.3265  -9.2252  -9.1958  -9.1637  -9.1042  -9.0579
    -8.9781  -8.9587  -8.9477  -8.8935  -8.8642  -8.8455  -8.8298  -8.7874
    -8.7644  -8.7561  -8.7309  -8.6855  -8.6583  -8.5916  -8.5614  -8.4731
    -5.2523  -5.2459  -5.2311  -5.2285  -5.2270  -5.2242  -5.2058  -5.1931
    -5.1802  -5.1418  -5.1407  -5.1308  -5.0933  -5.0852  -5.0767  -5.0372
    -5.0229  -5.0214  -5.0161  -5.0134  -5.0081  -5.0051  -4.9996  -4.9930
    -4.2035  -3.9893  -3.9465  -3.7455  -3.6780  -3.4674  -3.3949  -3.1714
    -0.6847  -0.5500  -0.5157  -0.4513  -0.3297  -0.2229  -0.1784  -0.1482
    -0.0505  -0.0236   0.0463   0.0590   0.3386   0.4010   0.4469   0.4795
     0.5209   0.5342   0.5647   0.5895   0.6264   0.6654   0.6996   0.7177
     0.7951   0.8682   0.9053   0.9599   0.9878   1.0316   1.0651   1.1160
     1.1477   1.1688   1.1997   1.2464   1.2726   1.2900   1.3188   1.3416
     1.3893   1.3998   1.4637   1.4875   1.5184   1.5697   1.5876   1.6108
     1.6378   1.6690   1.6840   1.7077   1.7220   1.7353   1.7513   1.7916
     1.8182   1.8506   1.8650   1.8810   1.9084   1.9412   1.9585   2.0001
     2.0366   2.0635   2.0931   2.1396   2.1872   2.3608   2.5136   2.5844

          k = 0.1250-0.3750-0.3750 (132616 PWs)   bands (ev):

   -18.4669 -18.4650 -18.4299 -18.3734 -18.3207 -18.3145 -18.3121 -18.3106
   -18.3091 -18.3072 -18.3056 -18.3050 -18.3043 -18.2927 -18.2910 -18.2719
   -18.2686 -18.2658 -18.2634 -18.2624 -18.2612 -18.2562 -18.2559 -18.2512
   -18.2506 -18.2490 -18.2479 -18.2447 -18.2418 -18.2398 -18.2382 -18.2349
   -18.2338 -18.2323 -18.2219 -18.2174 -18.2152 -18.2139 -18.1811 -18.1784
   -18.1687 -18.1669 -18.1654 -18.1622 -18.1578 -18.1480 -18.1449 -18.1362
    -9.4211  -9.3559  -9.3221  -9.2201  -9.1984  -9.1634  -9.1136  -9.0495
    -8.9847  -8.9556  -8.9462  -8.8924  -8.8601  -8.8476  -8.8289  -8.7922
    -8.7653  -8.7552  -8.7302  -8.6845  -8.6588  -8.5915  -8.5613  -8.4731
    -5.2523  -5.2460  -5.2311  -5.2284  -5.2270  -5.2242  -5.2058  -5.1931
    -5.1802  -5.1419  -5.1406  -5.1308  -5.0934  -5.0851  -5.0768  -5.0372
    -5.0229  -5.0213  -5.0162  -5.0133  -5.0081  -5.0052  -4.9995  -4.9931
    -4.1949  -4.0420  -3.8887  -3.7428  -3.6761  -3.5336  -3.3339  -3.1845
    -0.6865  -0.5635  -0.5051  -0.4328  -0.3263  -0.2770  -0.1902  -0.1285
    -0.0639  -0.0043   0.0552   0.1401   0.3085   0.3912   0.4205   0.4569
     0.5069   0.5290   0.5760   0.5937   0.6145   0.6768   0.7020   0.7439
     0.7887   0.8425   0.8968   0.9785   0.9865   1.0513   1.0632   1.1251
     1.1378   1.1971   1.2149   1.2436   1.2675   1.2789   1.3030   1.3511
     1.3797   1.4125   1.4560   1.4993   1.5210   1.5606   1.5897   1.6148
     1.6274   1.6482   1.6791   1.6890   1.7002   1.7337   1.7601   1.8021
     1.8106   1.8472   1.8707   1.8972   1.9319   1.9444   1.9786   1.9915
     2.0318   2.0648   2.0772   2.1491   2.2054   2.3546   2.5012   2.5821

          k = 0.3750 0.1250-0.3750 (132616 PWs)   bands (ev):

   -18.4669 -18.4650 -18.4299 -18.3734 -18.3207 -18.3145 -18.3121 -18.3106
   -18.3091 -18.3072 -18.3056 -18.3050 -18.3043 -18.2927 -18.2910 -18.2719
   -18.2686 -18.2658 -18.2634 -18.2624 -18.2612 -18.2562 -18.2559 -18.2512
   -18.2506 -18.2490 -18.2479 -18.2447 -18.2418 -18.2398 -18.2382 -18.2349
   -18.2338 -18.2323 -18.2219 -18.2174 -18.2152 -18.2139 -18.1811 -18.1784
   -18.1687 -18.1669 -18.1654 -18.1622 -18.1578 -18.1480 -18.1449 -18.1362
    -9.4285  -9.3407  -9.3211  -9.2493  -9.1910  -9.1449  -9.1050  -9.0512
    -9.0048  -8.9592  -8.9387  -8.8851  -8.8678  -8.8523  -8.8103  -8.7927
    -8.7748  -8.7534  -8.7304  -8.6963  -8.6506  -8.5897  -8.5603  -8.4739
    -5.2522  -5.2458  -5.2313  -5.2280  -5.2273  -5.2244  -5.2057  -5.1932
    -5.1800  -5.1417  -5.1410  -5.1309  -5.0936  -5.0851  -5.0770  -5.0368
    -5.0235  -5.0216  -5.0169  -5.0121  -5.0078  -5.0051  -5.0001  -4.9927
    -4.2151  -4.0049  -3.9587  -3.7494  -3.6477  -3.4377  -3.4003  -3.1533
    -0.6792  -0.6193  -0.5557  -0.4870  -0.3473  -0.2422  -0.1943  -0.1402
    -0.0856  -0.0325   0.0794   0.1618   0.3081   0.4160   0.4321   0.4631
     0.5262   0.5454   0.5814   0.6140   0.6381   0.6555   0.7046   0.7476
     0.7972   0.8601   0.9280   0.9732   0.9961   1.0282   1.0562   1.1066
     1.1393   1.1704   1.2000   1.2324   1.2703   1.2908   1.3243   1.3604
     1.3874   1.4008   1.4537   1.4709   1.5089   1.5369   1.5702   1.5857
     1.6463   1.6732   1.6893   1.7056   1.7312   1.7592   1.7824   1.7965
     1.8141   1.8469   1.8603   1.8869   1.9185   1.9402   1.9739   1.9967
     2.0240   2.0670   2.1044   2.1407   2.2743   2.3949   2.5365   2.5982

          k =-0.3750-0.1250-0.3750 (132616 PWs)   bands (ev):

   -18.4669 -18.4650 -18.4299 -18.3734 -18.3207 -18.3145 -18.3121 -18.3106
   -18.3091 -18.3072 -18.3056 -18.3050 -18.3043 -18.2927 -18.2910 -18.2719
   -18.2686 -18.2658 -18.2634 -18.2624 -18.2612 -18.2562 -18.2559 -18.2512
   -18.2506 -18.2490 -18.2479 -18.2447 -18.2418 -18.2398 -18.2382 -18.2349
   -18.2338 -18.2323 -18.2219 -18.2174 -18.2152 -18.2139 -18.1811 -18.1784
   -18.1687 -18.1669 -18.1654 -18.1622 -18.1578 -18.1480 -18.1449 -18.1362
    -9.4271  -9.3459  -9.3186  -9.2480  -9.1866  -9.1479  -9.1155  -9.0334
    -9.0093  -8.9604  -8.9397  -8.8854  -8.8694  -8.8550  -8.8114  -8.7962
    -8.7683  -8.7503  -8.7315  -8.6977  -8.6502  -8.5901  -8.5601  -8.4739
    -5.2522  -5.2458  -5.2313  -5.2281  -5.2272  -5.2245  -5.2057  -5.1932
    -5.1800  -5.1418  -5.1409  -5.1308  -5.0936  -5.0851  -5.0770  -5.0369
    -5.0236  -5.0217  -5.0169  -5.0121  -5.0077  -5.0052  -5.0000  -4.9928
    -4.1976  -4.0633  -3.9107  -3.7603  -3.6304  -3.5010  -3.3344  -3.1690
    -0.6750  -0.6233  -0.5563  -0.4982  -0.3001  -0.2810  -0.2255  -0.1713
    -0.0454   0.0127   0.0919   0.1394   0.3207   0.3969   0.4504   0.4860
     0.5139   0.5485   0.5801   0.6201   0.6346   0.6624   0.6780   0.7322
     0.7866   0.8431   0.9292   0.9558   0.9981   1.0119   1.0860   1.1158
     1.1344   1.1737   1.2173   1.2472   1.2666   1.2919   1.3290   1.3530
     1.3914   1.4101   1.4366   1.4715   1.4994   1.5424   1.5645   1.5957
     1.6456   1.6617   1.6833   1.7084   1.7319   1.7584   1.7980   1.8048
     1.8194   1.8504   1.8718   1.8917   1.9032   1.9372   1.9668   1.9834
     2.0318   2.0587   2.0755   2.1383   2.2873   2.4074   2.5151   2.6338

          k = 0.3750-0.1250 0.3750 (132616 PWs)   bands (ev):

   -18.4669 -18.4650 -18.4299 -18.3734 -18.3207 -18.3145 -18.3121 -18.3106
   -18.3091 -18.3072 -18.3056 -18.3050 -18.3043 -18.2927 -18.2910 -18.2719
   -18.2686 -18.2658 -18.2634 -18.2624 -18.2612 -18.2562 -18.2559 -18.2512
   -18.2506 -18.2490 -18.2479 -18.2447 -18.2418 -18.2398 -18.2382 -18.2349
   -18.2338 -18.2323 -18.2219 -18.2174 -18.2152 -18.2139 -18.1811 -18.1784
   -18.1687 -18.1669 -18.1654 -18.1622 -18.1578 -18.1480 -18.1449 -18.1362
    -9.4259  -9.3479  -9.3231  -9.2343  -9.1962  -9.1443  -9.1173  -9.0360
    -9.0066  -8.9589  -8.9442  -8.8848  -8.8683  -8.8535  -8.8159  -8.7912
    -8.7665  -8.7527  -8.7323  -8.6975  -8.6502  -8.5899  -8.5602  -8.4739
    -5.2521  -5.2458  -5.2313  -5.2282  -5.2272  -5.2245  -5.2057  -5.1933
    -5.1799  -5.1417  -5.1410  -5.1308  -5.0935  -5.0851  -5.0770  -5.0369
    -5.0237  -5.0215  -5.0169  -5.0121  -5.0077  -5.0053  -4.9999  -4.9928
    -4.2009  -4.0629  -3.9089  -3.7432  -3.6474  -3.5009  -3.3377  -3.1650
    -0.6840  -0.6199  -0.5426  -0.4949  -0.3032  -0.2818  -0.2275  -0.1690
    -0.0501   0.0129   0.0916   0.1187   0.3166   0.4018   0.4613   0.4910
     0.4997   0.5540   0.5676   0.6277   0.6374   0.6645   0.6873   0.7133
     0.8005   0.8583   0.9228   0.9588   1.0215   1.0425   1.0684   1.0888
     1.1318   1.1811   1.2120   1.2288   1.2620   1.2988   1.3331   1.3449
     1.3744   1.3984   1.4446   1.4650   1.5231   1.5388   1.5746   1.5827
     1.6575   1.6753   1.6980   1.7232   1.7415   1.7640   1.7761   1.8145
     1.8250   1.8405   1.8636   1.8839   1.9065   1.9276   1.9418   1.9738
     2.0162   2.0683   2.0858   2.1511   2.2916   2.3901   2.5300   2.6318

          k =-0.3750 0.1250 0.3750 (132616 PWs)   bands (ev):

   -18.4669 -18.4650 -18.4299 -18.3734 -18.3207 -18.3145 -18.3121 -18.3106
   -18.3091 -18.3072 -18.3056 -18.3050 -18.3043 -18.2927 -18.2910 -18.2719
   -18.2686 -18.2658 -18.2634 -18.2624 -18.2612 -18.2562 -18.2559 -18.2512
   -18.2506 -18.2490 -18.2479 -18.2447 -18.2418 -18.2398 -18.2382 -18.2349
   -18.2338 -18.2323 -18.2219 -18.2174 -18.2152 -18.2139 -18.1811 -18.1784
   -18.1687 -18.1669 -18.1654 -18.1622 -18.1578 -18.1480 -18.1449 -18.1362
    -9.4261  -9.3485  -9.3219  -9.2330  -9.1982  -9.1503  -9.1081  -9.0364
    -9.0124  -8.9575  -8.9439  -8.8842  -8.8683  -8.8507  -8.8131  -8.7921
    -8.7717  -8.7544  -8.7305  -8.6961  -8.6507  -8.5897  -8.5604  -8.4738
    -5.2522  -5.2458  -5.2313  -5.2281  -5.2272  -5.2245  -5.2057  -5.1933
    -5.1798  -5.1419  -5.1409  -5.1308  -5.0936  -5.0850  -5.0771  -5.0369
    -5.0238  -5.0215  -5.0169  -5.0120  -5.0077  -5.0054  -4.9998  -4.9929
    -4.2108  -4.0077  -3.9630  -3.7468  -3.6522  -3.4347  -3.3950  -3.1564
    -0.6832  -0.6191  -0.5484  -0.5034  -0.3401  -0.2473  -0.1910  -0.1283
    -0.0931  -0.0220   0.0837   0.1655   0.3065   0.4090   0.4434   0.4737
     0.5042   0.5529   0.5792   0.6016   0.6331   0.6665   0.6877   0.7335
     0.7842   0.8706   0.9193   0.9787   1.0170   1.0471   1.0565   1.1095
     1.1511   1.1594   1.2065   1.2174   1.2691   1.2964   1.3125   1.3599
     1.4022   1.4113   1.4380   1.4665   1.5098   1.5394   1.5640   1.5946
     1.6499   1.6729   1.6871   1.7042   1.7347   1.7540   1.7752   1.8088
     1.8271   1.8427   1.8820   1.8962   1.9009   1.9425   1.9507   1.9913
     2.0118   2.0626   2.0876   2.1288   2.2728   2.4095   2.5537   2.6157

          k = 0.3750-0.3750 0.1250 (132616 PWs)   bands (ev):

   -18.4669 -18.4650 -18.4299 -18.3734 -18.3207 -18.3145 -18.3121 -18.3106
   -18.3091 -18.3072 -18.3056 -18.3050 -18.3043 -18.2927 -18.2910 -18.2719
   -18.2686 -18.2658 -18.2634 -18.2624 -18.2612 -18.2562 -18.2559 -18.2512
   -18.2506 -18.2490 -18.2479 -18.2447 -18.2418 -18.2398 -18.2382 -18.2349
   -18.2338 -18.2323 -18.2219 -18.2174 -18.2152 -18.2139 -18.1811 -18.1784
   -18.1687 -18.1669 -18.1654 -18.1622 -18.1578 -18.1480 -18.1449 -18.1362
    -9.4232  -9.3571  -9.3003  -9.2475  -9.2221  -9.1408  -9.1011  -9.0311
    -8.9932  -8.9649  -8.9371  -8.8928  -8.8793  -8.8529  -8.8219  -8.7865
    -8.7696  -8.7530  -8.7311  -8.6881  -8.6533  -8.5900  -8.5605  -8.4745
    -5.2524  -5.2458  -5.2312  -5.2280  -5.2268  -5.2251  -5.2057  -5.1928
    -5.1798  -5.1419  -5.1406  -5.1307  -5.0935  -5.0850  -5.0770  -5.0373
    -5.0233  -5.0214  -5.0152  -5.0139  -5.0077  -5.0047  -4.9998  -4.9937
    -4.1957  -4.0292  -3.9335  -3.7831  -3.6244  -3.4718  -3.3626  -3.1801
    -0.6187  -0.5994  -0.5423  -0.5132  -0.3861  -0.2782  -0.1750  -0.1134
    -0.0540   0.0082   0.0651   0.1286   0.3048   0.3746   0.4248   0.4834
     0.5138   0.5472   0.5883   0.6003   0.6396   0.6627   0.6927   0.7284
     0.8072   0.8682   0.8967   0.9419   1.0063   1.0390   1.0552   1.1070
     1.1257   1.1602   1.2076   1.2191   1.2486   1.3129   1.3312   1.3669
     1.4120   1.4258   1.4969   1.5135   1.5359   1.5670   1.5847   1.6132
     1.6336   1.6528   1.6711   1.7126   1.7241   1.7420   1.7700   1.8042
     1.8145   1.8262   1.8650   1.8921   1.9055   1.9375   1.9696   1.9946
     2.0219   2.0533   2.0977   2.1831   2.2438   2.3861   2.4500   2.5611

          k =-0.3750-0.3750-0.1250 (132616 PWs)   bands (ev):

   -18.4669 -18.4650 -18.4299 -18.3734 -18.3207 -18.3145 -18.3121 -18.3106
   -18.3091 -18.3072 -18.3056 -18.3050 -18.3043 -18.2927 -18.2910 -18.2719
   -18.2686 -18.2658 -18.2634 -18.2624 -18.2612 -18.2562 -18.2559 -18.2512
   -18.2506 -18.2490 -18.2479 -18.2447 -18.2418 -18.2398 -18.2382 -18.2349
   -18.2338 -18.2323 -18.2219 -18.2174 -18.2152 -18.2139 -18.1811 -18.1784
   -18.1687 -18.1669 -18.1654 -18.1622 -18.1578 -18.1480 -18.1449 -18.1362
    -9.4256  -9.3431  -9.3150  -9.2543  -9.2096  -9.1388  -9.1100  -9.0233
    -8.9981  -8.9633  -8.9357  -8.8938  -8.8777  -8.8557  -8.8182  -8.7885
    -8.7763  -8.7478  -8.7300  -8.6889  -8.6530  -8.5904  -8.5602  -8.4745
    -5.2525  -5.2459  -5.2312  -5.2279  -5.2268  -5.2251  -5.2057  -5.1927
    -5.1799  -5.1420  -5.1405  -5.1307  -5.0936  -5.0850  -5.0770  -5.0373
    -5.0234  -5.0212  -5.0155  -5.0139  -5.0075  -5.0048  -5.0000  -4.9936
    -4.1936  -4.0076  -3.9698  -3.7648  -3.6427  -3.4420  -3.3780  -3.1820
    -0.6207  -0.5934  -0.5456  -0.5168  -0.3931  -0.2415  -0.2116  -0.1280
    -0.0510  -0.0114   0.0795   0.1734   0.3243   0.4094   0.4233   0.4867
     0.5088   0.5272   0.5555   0.5899   0.6157   0.6453   0.7152   0.7509
     0.7788   0.8668   0.8876   0.9553   0.9836   1.0272   1.0819   1.0942
     1.1461   1.1685   1.2051   1.2300   1.2639   1.2959   1.3449   1.3816
     1.4037   1.4509   1.4676   1.5022   1.5385   1.5497   1.5743   1.6145
     1.6361   1.6486   1.6762   1.6985   1.7223   1.7548   1.7689   1.7976
     1.8136   1.8383   1.8646   1.9022   1.9279   1.9426   1.9689   1.9989
     2.0275   2.0530   2.0955   2.1447   2.2305   2.4352   2.4398   2.5475

          k = 0.3750 0.3750-0.1250 (132616 PWs)   bands (ev):

   -18.4669 -18.4650 -18.4299 -18.3734 -18.3207 -18.3145 -18.3121 -18.3106
   -18.3091 -18.3072 -18.3056 -18.3050 -18.3043 -18.2927 -18.2910 -18.2719
   -18.2686 -18.2658 -18.2634 -18.2624 -18.2612 -18.2562 -18.2559 -18.2512
   -18.2506 -18.2490 -18.2479 -18.2447 -18.2418 -18.2398 -18.2382 -18.2349
   -18.2338 -18.2323 -18.2219 -18.2174 -18.2152 -18.2139 -18.1811 -18.1784
   -18.1687 -18.1669 -18.1654 -18.1622 -18.1578 -18.1480 -18.1449 -18.1362
    -9.4266  -9.3405  -9.3157  -9.2562  -9.2080  -9.1328  -9.1151  -9.0312
    -8.9968  -8.9638  -8.9315  -8.8917  -8.8755  -8.8553  -8.8190  -8.7878
    -8.7789  -8.7495  -8.7298  -8.6882  -8.6532  -8.5901  -8.5602  -8.4745
    -5.2525  -5.2459  -5.2312  -5.2279  -5.2269  -5.2250  -5.2057  -5.1927
    -5.1799  -5.1419  -5.1406  -5.1308  -5.0936  -5.0849  -5.0770  -5.0372
    -5.0234  -5.0211  -5.0154  -5.0141  -5.0075  -5.0046  -5.0001  -4.9936
    -4.2010  -4.0038  -3.9640  -3.7471  -3.6611  -3.4426  -3.3867  -3.1744
    -0.6323  -0.5883  -0.5440  -0.5034  -0.3841  -0.2385  -0.2160  -0.1383
    -0.0524  -0.0091   0.0632   0.1670   0.3201   0.4035   0.4276   0.4840
     0.5040   0.5286   0.5558   0.5818   0.6231   0.6592   0.7288   0.7517
     0.7911   0.8734   0.9041   0.9494   0.9828   1.0257   1.0477   1.1088
     1.1495   1.1718   1.1934   1.2324   1.2657   1.2949   1.3135   1.3758
     1.4109   1.4429   1.4913   1.5265   1.5492   1.5565   1.5863   1.6142
     1.6338   1.6474   1.6626   1.6832   1.7289   1.7358   1.7637   1.7868
     1.8068   1.8223   1.8696   1.8858   1.9327   1.9451   1.9828   1.9999
     2.0391   2.0666   2.1127   2.1516   2.2584   2.4082   2.4452   2.5109

          k =-0.3750 0.3750 0.1250 (132616 PWs)   bands (ev):

   -18.4669 -18.4650 -18.4299 -18.3734 -18.3207 -18.3145 -18.3121 -18.3106
   -18.3091 -18.3072 -18.3056 -18.3050 -18.3043 -18.2927 -18.2910 -18.2719
   -18.2686 -18.2658 -18.2634 -18.2624 -18.2612 -18.2562 -18.2559 -18.2512
   -18.2506 -18.2490 -18.2479 -18.2447 -18.2418 -18.2398 -18.2382 -18.2349
   -18.2338 -18.2323 -18.2219 -18.2174 -18.2152 -18.2139 -18.1811 -18.1784
   -18.1687 -18.1669 -18.1654 -18.1622 -18.1578 -18.1480 -18.1449 -18.1362
    -9.4228  -9.3591  -9.2985  -9.2471  -9.2213  -9.1403  -9.1058  -9.0231
    -9.0032  -8.9630  -8.9350  -8.8928  -8.8758  -8.8521  -8.8232  -8.7896
    -8.7682  -8.7555  -8.7301  -8.6872  -8.6536  -8.5898  -8.5605  -8.4745
    -5.2525  -5.2459  -5.2313  -5.2280  -5.2268  -5.2251  -5.2057  -5.1928
    -5.1797  -5.1420  -5.1405  -5.1307  -5.0936  -5.0849  -5.0770  -5.0373
    -5.0233  -5.0215  -5.0153  -5.0137  -5.0076  -5.0048  -4.9997  -4.9938
    -4.1950  -4.0278  -3.9366  -3.7794  -3.6310  -3.4683  -3.3621  -3.1801
    -0.6347  -0.5864  -0.5455  -0.5114  -0.3785  -0.2934  -0.1745  -0.1000
    -0.0468   0.0136   0.0568   0.1411   0.2974   0.3738   0.4208   0.4850
     0.5081   0.5430   0.5924   0.6047   0.6343   0.6586   0.6898   0.7075
     0.8160   0.8601   0.9072   0.9503   0.9905   1.0454   1.0667   1.1009
     1.1388   1.1599   1.2015   1.2404   1.2713   1.2918   1.3271   1.3656
     1.4030   1.4522   1.4815   1.5044   1.5381   1.5665   1.5803   1.6018
     1.6325   1.6564   1.6712   1.6948   1.7113   1.7468   1.7720   1.8016
     1.8094   1.8388   1.8686   1.9071   1.9205   1.9328   1.9678   1.9840
     2.0211   2.0668   2.0891   2.1857   2.2534   2.3810   2.4597   2.5477

          k =-0.3750-0.3750 0.3750 (132612 PWs)   bands (ev):

   -18.4669 -18.4650 -18.4299 -18.3734 -18.3207 -18.3145 -18.3121 -18.3106
   -18.3091 -18.3072 -18.3056 -18.3050 -18.3043 -18.2927 -18.2910 -18.2719
   -18.2686 -18.2658 -18.2634 -18.2624 -18.2612 -18.2562 -18.2559 -18.2512
   -18.2506 -18.2490 -18.2479 -18.2447 -18.2418 -18.2398 -18.2382 -18.2349
   -18.2338 -18.2323 -18.2219 -18.2174 -18.2152 -18.2139 -18.1811 -18.1784
   -18.1687 -18.1669 -18.1654 -18.1622 -18.1578 -18.1480 -18.1449 -18.1362
    -9.4164  -9.3331  -9.3179  -9.2664  -9.1983  -9.1478  -9.1185  -9.0661
    -9.0088  -8.9503  -8.9266  -8.8871  -8.8526  -8.8481  -8.8104  -8.7826
    -8.7731  -8.7534  -8.7308  -8.6941  -8.6605  -8.5901  -8.5636  -8.4752
    -5.2525  -5.2460  -5.2315  -5.2280  -5.2269  -5.2247  -5.2058  -5.1927
    -5.1800  -5.1419  -5.1409  -5.1309  -5.0932  -5.0849  -5.0771  -5.0371
    -5.0235  -5.0210  -5.0153  -5.0138  -5.0075  -5.0046  -4.9997  -4.9936
    -4.0957  -3.8993  -3.8614  -3.8172  -3.6406  -3.6086  -3.5304  -3.3381
    -0.4363  -0.3838  -0.3381  -0.2800  -0.2300  -0.1519  -0.1191  -0.0868
    -0.0428  -0.0042   0.0657   0.2093   0.2867   0.3352   0.3990   0.4282
     0.4710   0.4856   0.5219   0.5522   0.5689   0.5996   0.6459   0.6900
     0.8353   0.8834   0.9002   0.9400   0.9656   0.9975   1.0419   1.0621
     1.0943   1.1199   1.1550   1.1843   1.2099   1.2422   1.2702   1.3003
     1.3259   1.3921   1.4285   1.4520   1.5245   1.5481   1.6039   1.6157
     1.6590   1.6835   1.6977   1.7319   1.7529   1.7720   1.7884   1.8154
     1.8255   1.8493   1.8665   1.9107   1.9192   1.9396   1.9606   1.9898
     2.0039   2.0324   2.0570   2.0939   2.1118   2.1761   2.2309   2.2838

          k =-0.3750 0.3750-0.3750 (132612 PWs)   bands (ev):

   -18.4669 -18.4650 -18.4299 -18.3734 -18.3207 -18.3145 -18.3121 -18.3106
   -18.3091 -18.3072 -18.3056 -18.3050 -18.3043 -18.2927 -18.2910 -18.2719
   -18.2686 -18.2658 -18.2634 -18.2624 -18.2612 -18.2562 -18.2559 -18.2512
   -18.2506 -18.2490 -18.2479 -18.2447 -18.2418 -18.2398 -18.2382 -18.2349
   -18.2338 -18.2323 -18.2219 -18.2174 -18.2152 -18.2139 -18.1811 -18.1784
   -18.1687 -18.1669 -18.1654 -18.1622 -18.1578 -18.1480 -18.1449 -18.1362
    -9.4132  -9.3420  -9.3215  -9.2457  -9.2114  -9.1505  -9.1155  -9.0621
    -9.0076  -8.9502  -8.9314  -8.8871  -8.8575  -8.8457  -8.8130  -8.7791
    -8.7666  -8.7556  -8.7318  -8.6947  -8.6605  -8.5902  -8.5637  -8.4752
    -5.2524  -5.2459  -5.2315  -5.2281  -5.2268  -5.2248  -5.2058  -5.1928
    -5.1799  -5.1419  -5.1410  -5.1308  -5.0932  -5.0849  -5.0772  -5.0372
    -5.0233  -5.0213  -5.0150  -5.0138  -5.0077  -5.0046  -4.9995  -4.9937
    -4.0823  -3.9488  -3.8390  -3.7913  -3.6658  -3.6165  -3.4988  -3.3488
    -0.4403  -0.3644  -0.3324  -0.3029  -0.2346  -0.1590  -0.1528  -0.0800
    -0.0122   0.0096   0.0929   0.1778   0.3044   0.3328   0.3933   0.4123
     0.4723   0.4860   0.5265   0.5512   0.5898   0.6108   0.6394   0.6491
     0.8421   0.8674   0.9070   0.9434   0.9805   0.9998   1.0449   1.0739
     1.0977   1.1197   1.1441   1.1781   1.2151   1.2266   1.2771   1.2946
     1.3275   1.3728   1.4343   1.4761   1.5261   1.5692   1.5847   1.6053
     1.6627   1.6988   1.7145   1.7456   1.7555   1.7811   1.7953   1.8149
     1.8314   1.8429   1.8632   1.8798   1.9203   1.9340   1.9424   1.9743
     1.9974   2.0165   2.0454   2.0702   2.0867   2.1778   2.2875   2.3203

          k = 0.3750-0.3750-0.3750 (132612 PWs)   bands (ev):

   -18.4669 -18.4650 -18.4299 -18.3734 -18.3207 -18.3145 -18.3121 -18.3106
   -18.3091 -18.3072 -18.3056 -18.3050 -18.3043 -18.2927 -18.2910 -18.2719
   -18.2686 -18.2658 -18.2634 -18.2624 -18.2612 -18.2562 -18.2559 -18.2512
   -18.2506 -18.2490 -18.2479 -18.2447 -18.2418 -18.2398 -18.2382 -18.2349
   -18.2338 -18.2323 -18.2219 -18.2174 -18.2152 -18.2139 -18.1811 -18.1784
   -18.1687 -18.1669 -18.1654 -18.1622 -18.1578 -18.1480 -18.1449 -18.1362
    -9.4126  -9.3473  -9.3163  -9.2462  -9.2089  -9.1510  -9.1206  -9.0575
    -9.0111  -8.9498  -8.9305  -8.8864  -8.8554  -8.8437  -8.8127  -8.7852
    -8.7646  -8.7576  -8.7306  -8.6939  -8.6607  -8.5900  -8.5638  -8.4752
    -5.2524  -5.2460  -5.2315  -5.2281  -5.2268  -5.2247  -5.2058  -5.1929
    -5.1799  -5.1420  -5.1408  -5.1308  -5.0933  -5.0849  -5.0772  -5.0372
    -5.0234  -5.0213  -5.0151  -5.0137  -5.0076  -5.0047  -4.9994  -4.9938
    -4.0803  -3.9495  -3.8494  -3.7679  -3.6933  -3.6089  -3.4914  -3.3503
    -0.4553  -0.3704  -0.3328  -0.2647  -0.2500  -0.1739  -0.1503  -0.0851
    -0.0061   0.0314   0.0960   0.2234   0.2756   0.3233   0.3690   0.4144
     0.4688   0.4971   0.5104   0.5557   0.5703   0.6009   0.6424   0.6674
     0.8294   0.8712   0.8895   0.9465   0.9933   1.0273   1.0495   1.0634
     1.1035   1.1236   1.1553   1.1829   1.2007   1.2224   1.2547   1.3252
     1.3388   1.3857   1.4195   1.4822   1.5046   1.5538   1.5822   1.6096
     1.6614   1.6825   1.7126   1.7312   1.7576   1.7727   1.7911   1.8174
     1.8312   1.8624   1.8723   1.9018   1.9166   1.9431   1.9541   1.9701
     1.9884   2.0007   2.0468   2.0805   2.0932   2.1854   2.2748   2.3158

     highest occupied level (ev):     3.1045

!    total energy              =   -2256.31267868 Ry
     estimated scf accuracy    <          4.7E-11 Ry

     The total energy is the sum of the following terms:
     one-electron contribution =    -986.25340558 Ry
     hartree contribution      =     621.12957235 Ry
     xc contribution           =    -647.47168561 Ry
     ewald contribution        =   -1243.71715985 Ry

     convergence has been achieved in  15 iterations

     Forces acting on atoms (cartesian axes, Ry/au):

     atom    1 type  1   force =     0.00301849    0.00237911    0.00053324
     atom    2 type  2   force =    -0.01507283   -0.01109474    0.01681857
     atom    3 type  3   force =    -0.02125873    0.00342276   -0.00826341
     atom    4 type  3   force =    -0.00075191    0.00585096    0.00630480
     atom    5 type  3   force =    -0.00607239    0.00849824   -0.00490111
     atom    6 type  1   force =     0.00425426    0.00628061    0.00417508
     atom    7 type  2   force =     0.00010350   -0.00755560   -0.00957879
     atom    8 type  3   force =    -0.01819987   -0.00591707   -0.00486277
     atom    9 type  3   force =     0.00079126    0.00691014   -0.00206770
     atom   10 type  3   force =     0.01239360   -0.01899410    0.00144186
     atom   11 type  1   force =    -0.00102511   -0.00382977   -0.00463225
     atom   12 type  2   force =     0.00356317    0.00462008   -0.00467295
     atom   13 type  3   force =    -0.00727189    0.00367151    0.00144897
     atom   14 type  3   force =     0.00306628   -0.00011721   -0.00364748
     atom   15 type  3   force =    -0.00176851   -0.01152525   -0.00014426
     atom   16 type  1   force =    -0.00036105   -0.00184925    0.00266209
     atom   17 type  2   force =     0.00684611    0.00637455    0.00428629
     atom   18 type  3   force =    -0.00152312   -0.00010802   -0.00259592
     atom   19 type  3   force =    -0.00514021   -0.00219468    0.00700836
     atom   20 type  3   force =     0.00767902   -0.00220211    0.00104221
     atom   21 type  1   force =    -0.00122764   -0.00025717    0.00114978
     atom   22 type  2   force =     0.02543744   -0.00874908    0.00198859
     atom   23 type  3   force =     0.00794452   -0.00211409   -0.00682527
     atom   24 type  3   force =     0.00311402    0.00075387    0.00510454
     atom   25 type  3   force =     0.00274187    0.00709889   -0.00159444
     atom   26 type  1   force =    -0.00386439   -0.00115462    0.00037425
     atom   27 type  2   force =     0.01423232    0.01835507    0.00311866
     atom   28 type  3   force =    -0.01138211    0.01146384    0.00405605
     atom   29 type  3   force =     0.00071119   -0.00150920    0.00391777
     atom   30 type  3   force =    -0.00187957   -0.00028531    0.00205119
     atom   31 type  1   force =     0.00012760   -0.00404805   -0.00766148
     atom   32 type  2   force =    -0.00451225    0.00742721   -0.01094297
     atom   33 type  3   force =     0.00491070    0.00074195   -0.00303019
     atom   34 type  3   force =    -0.00132709   -0.00127056    0.00117487
     atom   35 type  3   force =     0.00202758   -0.00648477    0.00108967
     atom   36 type  1   force =     0.00148441    0.00237108    0.00288648
     atom   37 type  2   force =    -0.00351581   -0.01515261    0.00889067
     atom   38 type  3   force =    -0.00225061    0.01378849    0.00218216
     atom   39 type  3   force =     0.00312144   -0.00514279   -0.01086246
     atom   40 type  3   force =     0.00083631    0.00154769    0.00257735

     Total force =     0.077649     Total SCF correction =     0.000028


     Computing stress (Cartesian axis) and pressure

          total   stress  (Ry/bohr**3)                   (kbar)     P=       -8.03
  -0.00004970  -0.00000391   0.00000586           -7.31       -0.58        0.86
  -0.00000391  -0.00005500   0.00000255           -0.58       -8.09        0.37
   0.00000586   0.00000255  -0.00005901            0.86        0.37       -8.68

 
     init_run     :     20.02s CPU     17.24s WALL (       1 calls)
     electrons    :    202.68s CPU    216.43s WALL (       1 calls)
     forces       :      8.81s CPU      3.99s WALL (       1 calls)
     stress       :     30.99s CPU     30.98s WALL (       1 calls)

     Called by init_run:
     wfcinit      :     12.13s CPU     14.19s WALL (       1 calls)
                                       14.19s GPU  (       1 calls)
     potinit      :      4.51s CPU      1.39s WALL (       1 calls)
     hinit0       :      2.82s CPU      0.99s WALL (       1 calls)

     Called by electrons:
     c_bands      :    121.88s CPU    173.68s WALL (      16 calls)
     sum_band     :     21.70s CPU     21.14s WALL (      16 calls)
                                       21.14s GPU  (      16 calls)
     v_of_rho     :     54.74s CPU     16.74s WALL (      16 calls)
     mix_rho      :      6.54s CPU      5.19s WALL (      16 calls)

     Called by c_bands:
     init_us_2    :      2.32s CPU      3.08s WALL (     280 calls)
                                        3.07s GPU  (     280 calls)
     cegterg      :     82.25s CPU    131.15s WALL (     128 calls)

     Called by *egterg:
     cdiaghg      :     14.25s CPU     26.18s WALL (     683 calls)
                                       26.14s GPU  (     683 calls)
     h_psi        :     55.76s CPU     76.06s WALL (     699 calls)
                                       75.61s GPU  (     699 calls)
     g_psi        :      0.00s CPU      0.37s WALL (     563 calls)
                                        0.37s GPU  (     563 calls)

     Called by h_psi:
     h_psi:calbec :      0.33s CPU     10.18s WALL (     699 calls)
                                       10.17s GPU  (     699 calls)
     vloc_psi     :     40.85s CPU     55.66s WALL (     699 calls)
                                       54.72s GPU  (     699 calls)
     add_vuspsi   :      0.35s CPU     10.14s WALL (     699 calls)
                                       10.13s GPU  (     699 calls)

     General routines
     calbec       :      0.33s CPU      0.40s WALL (     739 calls)
     fft          :     25.29s CPU      6.50s WALL (     185 calls)
                                        0.00s GPU  (       6 calls)
     ffts         :      2.64s CPU      0.68s WALL (      16 calls)
     fftw         :      0.73s CPU     64.21s WALL (   10742 calls)
                                       48.03s GPU  (   10742 calls)
 
     Parallel routines
 
     PWSCF        :   4m23.18s CPU   4m29.40s WALL

 
   This run was terminated on:  20:48:37  22Apr2021            

=------------------------------------------------------------------------------=
   JOB DONE.
=------------------------------------------------------------------------------=
