
     Program PWSCF v.6.7MaX starts on 22Apr2021 at 21:42:11 

     This program is part of the open-source Quantum ESPRESSO suite
     for quantum simulation of materials; please cite
         "P. Giannozzi et al., J. Phys.:Condens. Matter 21 395502 (2009);
         "P. Giannozzi et al., J. Phys.:Condens. Matter 29 465901 (2017);
         "P. Giannozzi et al., J. Chem. Phys. 152 154105 (2020);
          URL http://www.quantum-espresso.org", 
     in publications or presentations arising from this work. More details at
     http://www.quantum-espresso.org/quote

     Parallel version (MPI & OpenMP), running on      16 processor cores
     Number of MPI processes:                 4
     Threads/MPI process:                     4

     MPI processes distributed on     1 nodes
     K-points division:     npool     =       4
     Reading input from ESP_18.pwi
Warning: card &CELL ignored
Warning: card / ignored

     Current dimensions of program PWSCF are:
     Max number of different atomic species (ntypx) = 10
     Max number of k-points (npk) =  40000
     Max angular momentum in pseudopotentials (lmaxx) =  3
     Message from routine read_pp_mesh:
     mesh size missing, using the one in header
     Message from routine read_pp_mesh:
     mesh size missing, using the one in header
     Message from routine read_pp_mesh:
     mesh size missing, using the one in header

     Subspace diagonalization in iterative solution of the eigenvalue problem:
     a serial algorithm will be used

 
     G-vector sticks info
     --------------------
     sticks:   dense  smooth     PW     G-vecs:    dense   smooth      PW
     Sum       12589   12589   3289              1061107  1061107  140905
 
     Using Slab Decomposition
 


     bravais-lattice index     =            0
     lattice parameter (alat)  =      23.7585  a.u.
     unit-cell volume          =   13410.8736 (a.u.)^3
     number of atoms/cell      =           40
     number of atomic types    =            3
     number of electrons       =       352.00
     number of Kohn-Sham states=          176
     kinetic-energy cutoff     =      70.0000  Ry
     charge density cutoff     =     280.0000  Ry
     scf convergence threshold =      1.0E-10
     mixing beta               =       0.7000
     number of iterations used =            8  plain     mixing
     Exchange-correlation= PBESOL
                           (   1   4  10   8   0   0   0)

     GPU acceleration is ACTIVE.


     celldm(1)=  23.758500  celldm(2)=   0.000000  celldm(3)=   0.000000
     celldm(4)=   0.000000  celldm(5)=   0.000000  celldm(6)=   0.000000

     crystal axes: (cart. coord. in units of alat)
               a(1) = (   1.000000   0.000000   0.000000 )  
               a(2) = (   0.000000   1.000000   0.000000 )  
               a(3) = (   0.000000   0.000000   1.000000 )  

     reciprocal axes: (cart. coord. in units 2 pi/alat)
               b(1) = (  1.000000  0.000000  0.000000 )  
               b(2) = (  0.000000  1.000000  0.000000 )  
               b(3) = (  0.000000  0.000000  1.000000 )  


     PseudoPot. # 1 for Cs read from file:
     /m100/home/userexternal/lmonacel/espresso/pseudo/Cs-nc-pbesol.upf
     MD5 check sum: 9d2f2206a14dc5b3b3f3fbfae186bed4
     Pseudo is Norm-conserving + core correction, Zval =  9.0
     Generated using ONCVPSP code by D. R. Hamann
     Using radial grid of 2384 points,  8 beta functions with: 
                l(1) =   0
                l(2) =   0
                l(3) =   1
                l(4) =   1
                l(5) =   2
                l(6) =   2
                l(7) =   3
                l(8) =   3

     PseudoPot. # 2 for Sn read from file:
     /m100/home/userexternal/lmonacel/espresso/pseudo/Sn-nc-pbesol.upf
     MD5 check sum: c2995d571af40102bfea7461443d92cf
     Pseudo is Norm-conserving + core correction, Zval = 14.0
     Generated using ONCVPSP code by D. R. Hamann
     Using radial grid of 1628 points,  6 beta functions with: 
                l(1) =   0
                l(2) =   0
                l(3) =   1
                l(4) =   1
                l(5) =   2
                l(6) =   2

     PseudoPot. # 3 for I  read from file:
     /m100/home/userexternal/lmonacel/espresso/pseudo/I-nc-pbesol.upf
     MD5 check sum: 80ed5ceb2eb9c553cfb6760a299d9c5b
     Pseudo is Norm-conserving + core correction, Zval =  7.0
     Generated using ONCVPSP code by D. R. Hamann
     Using radial grid of 1182 points,  6 beta functions with: 
                l(1) =   0
                l(2) =   0
                l(3) =   1
                l(4) =   1
                l(5) =   2
                l(6) =   2

     atomic species   valence    mass     pseudopotential
        Cs             9.00   132.90545     Cs( 1.00)
        Sn            14.00   118.71000     Sn( 1.00)
        I              7.00   126.90447     I ( 1.00)

     No symmetry found



   Cartesian axes

     site n.     atom                  positions (alat units)
         1           Cs  tau(   1) = (   0.2478978   0.2162907   0.2254971  )
         2           Sn  tau(   2) = (  -0.0126615  -0.0072661  -0.0083680  )
         3           I   tau(   3) = (   0.2464844  -0.0219010  -0.0008976  )
         4           I   tau(   4) = (   0.0020222   0.0278901   0.2626726  )
         5           I   tau(   5) = (  -0.0080349   0.2565347  -0.0519081  )
         6           Cs  tau(   6) = (   0.2567757   0.2456110   0.7409614  )
         7           Sn  tau(   7) = (  -0.0118718  -0.0004624   0.4946093  )
         8           I   tau(   8) = (   0.2398680   0.0093771   0.5160403  )
         9           I   tau(   9) = (  -0.0467718  -0.0363598   0.7561732  )
        10           I   tau(  10) = (   0.0031917   0.2549880   0.5023943  )
        11           Cs  tau(  11) = (   0.2443696   0.7349966   0.2431371  )
        12           Sn  tau(  12) = (   0.0231521   0.4895664  -0.0222959  )
        13           I   tau(  13) = (   0.2877719   0.4569611   0.0563701  )
        14           I   tau(  14) = (  -0.0356622   0.5101502   0.2284074  )
        15           I   tau(  15) = (   0.0430727   0.7565020   0.0269074  )
        16           Cs  tau(  16) = (   0.2464984   0.7261572   0.7410630  )
        17           Sn  tau(  17) = (   0.0107725   0.5116880   0.4652350  )
        18           I   tau(  18) = (   0.2367789   0.5346265   0.4670717  )
        19           I   tau(  19) = (   0.0459055   0.5340610   0.7328462  )
        20           I   tau(  20) = (  -0.0045160   0.7578823   0.4365333  )
        21           Cs  tau(  21) = (   0.7857519   0.2247355   0.2323351  )
        22           Sn  tau(  22) = (   0.4882147  -0.0088092   0.0095272  )
        23           I   tau(  23) = (   0.7314512  -0.0005372   0.0220940  )
        24           I   tau(  24) = (   0.5237798   0.0557874   0.2564214  )
        25           I   tau(  25) = (   0.5109922   0.2566917  -0.0125330  )
        26           Cs  tau(  26) = (   0.7450854   0.2814889   0.7469202  )
        27           Sn  tau(  27) = (   0.4862000  -0.0012582   0.5182364  )
        28           I   tau(  28) = (   0.7373563  -0.0142960   0.5231317  )
        29           I   tau(  29) = (   0.4798936   0.0187712   0.7555559  )
        30           I   tau(  30) = (   0.4884188   0.2546733   0.5152892  )
        31           Cs  tau(  31) = (   0.7042906   0.7530515   0.2813421  )
        32           Sn  tau(  32) = (   0.5101660   0.4865270   0.0149086  )
        33           I   tau(  33) = (   0.7830189   0.4683020  -0.0465853  )
        34           I   tau(  34) = (   0.5222398   0.5136028   0.2657665  )
        35           I   tau(  35) = (   0.4939088   0.7538950   0.0404129  )
        36           Cs  tau(  36) = (   0.7702731   0.7657589   0.7567620  )
        37           Sn  tau(  37) = (   0.4988285   0.4981268   0.5183051  )
        38           I   tau(  38) = (   0.7382549   0.4961982   0.5036689  )
        39           I   tau(  39) = (   0.5062115   0.4879292   0.7683162  )
        40           I   tau(  40) = (   0.4801113   0.7524631   0.5185521  )

     number of k points=    32
                       cart. coord. in units 2pi/alat
        k(    1) = (   0.1250000   0.1250000   0.1250000), wk =   0.0625000
        k(    2) = (   0.1250000   0.1250000   0.3750000), wk =   0.0625000
        k(    3) = (   0.1250000   0.3750000   0.3750000), wk =   0.0625000
        k(    4) = (   0.3750000   0.3750000   0.3750000), wk =   0.0625000
        k(    5) = (  -0.1250000  -0.1250000   0.1250000), wk =   0.0625000
        k(    6) = (  -0.1250000   0.1250000  -0.1250000), wk =   0.0625000
        k(    7) = (   0.1250000  -0.1250000  -0.1250000), wk =   0.0625000
        k(    8) = (  -0.1250000  -0.1250000   0.3750000), wk =   0.0625000
        k(    9) = (  -0.1250000   0.1250000  -0.3750000), wk =   0.0625000
        k(   10) = (   0.1250000  -0.1250000  -0.3750000), wk =   0.0625000
        k(   11) = (   0.3750000  -0.1250000   0.1250000), wk =   0.0625000
        k(   12) = (  -0.3750000  -0.1250000  -0.1250000), wk =   0.0625000
        k(   13) = (   0.3750000   0.1250000  -0.1250000), wk =   0.0625000
        k(   14) = (  -0.3750000   0.1250000   0.1250000), wk =   0.0625000
        k(   15) = (  -0.1250000   0.3750000   0.1250000), wk =   0.0625000
        k(   16) = (  -0.1250000  -0.3750000  -0.1250000), wk =   0.0625000
        k(   17) = (   0.1250000   0.3750000  -0.1250000), wk =   0.0625000
        k(   18) = (   0.1250000  -0.3750000   0.1250000), wk =   0.0625000
        k(   19) = (  -0.1250000  -0.3750000   0.3750000), wk =   0.0625000
        k(   20) = (  -0.1250000   0.3750000  -0.3750000), wk =   0.0625000
        k(   21) = (   0.1250000  -0.3750000  -0.3750000), wk =   0.0625000
        k(   22) = (   0.3750000   0.1250000  -0.3750000), wk =   0.0625000
        k(   23) = (  -0.3750000  -0.1250000  -0.3750000), wk =   0.0625000
        k(   24) = (   0.3750000  -0.1250000   0.3750000), wk =   0.0625000
        k(   25) = (  -0.3750000   0.1250000   0.3750000), wk =   0.0625000
        k(   26) = (   0.3750000  -0.3750000   0.1250000), wk =   0.0625000
        k(   27) = (  -0.3750000  -0.3750000  -0.1250000), wk =   0.0625000
        k(   28) = (   0.3750000   0.3750000  -0.1250000), wk =   0.0625000
        k(   29) = (  -0.3750000   0.3750000   0.1250000), wk =   0.0625000
        k(   30) = (  -0.3750000  -0.3750000   0.3750000), wk =   0.0625000
        k(   31) = (  -0.3750000   0.3750000  -0.3750000), wk =   0.0625000
        k(   32) = (   0.3750000  -0.3750000  -0.3750000), wk =   0.0625000

     Dense  grid:  1061107 G-vectors     FFT dimensions: ( 128, 128, 128)

     Estimated max dynamical RAM per process >       6.82 GB

     Estimated total dynamical RAM >      27.27 GB

     Initial potential from superposition of free atoms

     starting charge  351.69472, renormalised to  352.00000
     Starting wfcs are  208 randomized atomic wfcs

     total cpu time spent up to now is       17.6 secs

     Self-consistent Calculation

     iteration #  1     ecut=    70.00 Ry     beta= 0.70
     Davidson diagonalization with overlap
     ethr =  1.00E-02,  avg # of iterations =  1.9

     Threshold (ethr) on eigenvalues was too large:
     Diagonalizing with lowered threshold

     Davidson diagonalization with overlap
     ethr =  2.23E-04,  avg # of iterations =  4.0

     total cpu time spent up to now is       38.6 secs

     total energy              =   -2255.98729224 Ry
     estimated scf accuracy    <       0.68600492 Ry

     iteration #  2     ecut=    70.00 Ry     beta= 0.70
     Davidson diagonalization with overlap
     ethr =  1.95E-04,  avg # of iterations =  3.3

     total cpu time spent up to now is       51.4 secs

     total energy              =   -2256.19649944 Ry
     estimated scf accuracy    <       0.32680950 Ry

     iteration #  3     ecut=    70.00 Ry     beta= 0.70
     Davidson diagonalization with overlap
     ethr =  9.28E-05,  avg # of iterations =  2.8

     total cpu time spent up to now is       63.1 secs

     total energy              =   -2256.25938747 Ry
     estimated scf accuracy    <       0.02505780 Ry

     iteration #  4     ecut=    70.00 Ry     beta= 0.70
     Davidson diagonalization with overlap
     ethr =  7.12E-06,  avg # of iterations =  4.1

     total cpu time spent up to now is       76.2 secs

     total energy              =   -2256.26802242 Ry
     estimated scf accuracy    <       0.00603157 Ry

     iteration #  5     ecut=    70.00 Ry     beta= 0.70
     Davidson diagonalization with overlap
     ethr =  1.71E-06,  avg # of iterations =  3.0

     total cpu time spent up to now is       88.2 secs

     total energy              =   -2256.26916577 Ry
     estimated scf accuracy    <       0.00128861 Ry

     iteration #  6     ecut=    70.00 Ry     beta= 0.70
     Davidson diagonalization with overlap
     ethr =  3.66E-07,  avg # of iterations =  3.8

     total cpu time spent up to now is      100.4 secs

     total energy              =   -2256.26940644 Ry
     estimated scf accuracy    <       0.00015400 Ry

     iteration #  7     ecut=    70.00 Ry     beta= 0.70
     Davidson diagonalization with overlap
     ethr =  4.38E-08,  avg # of iterations =  5.7

     total cpu time spent up to now is      115.0 secs

     total energy              =   -2256.26946735 Ry
     estimated scf accuracy    <       0.00002429 Ry

     iteration #  8     ecut=    70.00 Ry     beta= 0.70
     Davidson diagonalization with overlap
     ethr =  6.90E-09,  avg # of iterations =  4.5

     total cpu time spent up to now is      128.9 secs

     total energy              =   -2256.26947705 Ry
     estimated scf accuracy    <       0.00000498 Ry

     iteration #  9     ecut=    70.00 Ry     beta= 0.70
     Davidson diagonalization with overlap
     ethr =  1.42E-09,  avg # of iterations =  4.2

     total cpu time spent up to now is      142.5 secs

     total energy              =   -2256.26947869 Ry
     estimated scf accuracy    <       0.00000093 Ry

     iteration # 10     ecut=    70.00 Ry     beta= 0.70
     Davidson diagonalization with overlap
     ethr =  2.64E-10,  avg # of iterations =  3.4

     total cpu time spent up to now is      156.0 secs

     total energy              =   -2256.26947898 Ry
     estimated scf accuracy    <       0.00000017 Ry

     iteration # 11     ecut=    70.00 Ry     beta= 0.70
     Davidson diagonalization with overlap
     ethr =  4.73E-11,  avg # of iterations =  4.6

     total cpu time spent up to now is      170.9 secs

     total energy              =   -2256.26947906 Ry
     estimated scf accuracy    <       0.00000003 Ry

     iteration # 12     ecut=    70.00 Ry     beta= 0.70
     Davidson diagonalization with overlap
     ethr =  7.52E-12,  avg # of iterations =  5.4

     total cpu time spent up to now is      187.0 secs

     total energy              =   -2256.26947907 Ry
     estimated scf accuracy    <       0.00000001 Ry

     iteration # 13     ecut=    70.00 Ry     beta= 0.70
     Davidson diagonalization with overlap
     ethr =  4.24E-12,  avg # of iterations =  3.2

     total cpu time spent up to now is      199.4 secs

     total energy              =   -2256.26947908 Ry
     estimated scf accuracy    <          1.2E-09 Ry

     iteration # 14     ecut=    70.00 Ry     beta= 0.70
     Davidson diagonalization with overlap
     ethr =  3.32E-13,  avg # of iterations =  5.6

     total cpu time spent up to now is      216.4 secs

     total energy              =   -2256.26947908 Ry
     estimated scf accuracy    <          2.3E-10 Ry

     iteration # 15     ecut=    70.00 Ry     beta= 0.70
     Davidson diagonalization with overlap
     ethr =  1.00E-13,  avg # of iterations =  3.6

     total cpu time spent up to now is      229.2 secs

     End of self-consistent calculation

          k = 0.1250 0.1250 0.1250 (132670 PWs)   bands (ev):

   -18.4291 -18.4257 -18.4196 -18.4175 -18.4111 -18.4092 -18.4024 -18.4013
   -18.3810 -18.3247 -18.3190 -18.3162 -18.3039 -18.2987 -18.2903 -18.2794
   -18.2725 -18.2690 -18.2629 -18.2524 -18.2371 -18.2282 -18.2270 -18.2173
   -18.2057 -18.2013 -18.1997 -18.1997 -18.1915 -18.1873 -18.1869 -18.1863
   -18.1853 -18.1843 -18.1840 -18.1756 -18.1744 -18.1741 -18.1711 -18.1693
   -18.1676 -18.1657 -18.1554 -18.1451 -18.1415 -18.1170 -18.1148 -18.1114
    -9.4273  -9.3467  -9.3072  -9.2435  -9.1866  -9.1544  -9.1022  -9.0134
    -8.9988  -8.9735  -8.9360  -8.9054  -8.8821  -8.8771  -8.8581  -8.8241
    -8.7923  -8.7697  -8.7256  -8.6908  -8.6750  -8.6166  -8.5666  -8.5381
    -5.2408  -5.2113  -5.2024  -5.1938  -5.1889  -5.1866  -5.1785  -5.1743
    -5.1719  -5.1639  -5.1602  -5.1531  -5.0549  -5.0406  -5.0305  -5.0228
    -5.0157  -5.0082  -4.9989  -4.9861  -4.9700  -4.9236  -4.9119  -4.8980
    -4.4075  -3.9407  -3.9221  -3.8524  -3.4205  -3.3913  -3.3317  -2.8034
    -0.7617  -0.7398  -0.6884  -0.6557  -0.5483  -0.5178  -0.4810  -0.4257
    -0.3431  -0.2523  -0.2131  -0.1807   0.4333   0.4804   0.5167   0.5955
     0.6253   0.6705   0.7056   0.7239   0.7558   0.8289   0.8639   0.8887
     0.9647   0.9917   1.0253   1.0698   1.0852   1.1232   1.1424   1.1584
     1.1818   1.2177   1.2514   1.2750   1.2971   1.3068   1.3569   1.3644
     1.4044   1.4226   1.4328   1.4660   1.4838   1.4995   1.5236   1.5569
     1.5726   1.5901   1.6208   1.6442   1.6709   1.6970   1.7580   1.7768
     1.8234   1.8569   1.8755   1.9173   1.9994   2.0454   2.0766   2.0980
     2.1394   2.2147   2.2517   2.3224   2.5844   2.6549   2.7130   3.0929

          k = 0.1250 0.1250 0.3750 (132608 PWs)   bands (ev):

   -18.4291 -18.4257 -18.4195 -18.4175 -18.4111 -18.4092 -18.4024 -18.4013
   -18.3810 -18.3247 -18.3190 -18.3162 -18.3039 -18.2987 -18.2903 -18.2794
   -18.2725 -18.2690 -18.2629 -18.2524 -18.2371 -18.2282 -18.2270 -18.2173
   -18.2057 -18.2013 -18.1997 -18.1997 -18.1915 -18.1873 -18.1869 -18.1863
   -18.1853 -18.1843 -18.1840 -18.1756 -18.1744 -18.1741 -18.1711 -18.1693
   -18.1676 -18.1657 -18.1554 -18.1451 -18.1415 -18.1170 -18.1148 -18.1114
    -9.4016  -9.3668  -9.2950  -9.2524  -9.2084  -9.1593  -9.1021  -9.0170
    -9.0045  -8.9680  -8.9238  -8.9038  -8.8854  -8.8768  -8.8580  -8.8277
    -8.7841  -8.7534  -8.7181  -8.6912  -8.6754  -8.6209  -8.5707  -8.5467
    -5.2410  -5.2112  -5.2018  -5.1938  -5.1888  -5.1866  -5.1780  -5.1745
    -5.1720  -5.1632  -5.1610  -5.1533  -5.0548  -5.0407  -5.0305  -5.0230
    -5.0157  -5.0082  -4.9990  -4.9860  -4.9703  -4.9234  -4.9120  -4.8981
    -4.2848  -4.0914  -3.7936  -3.7436  -3.5716  -3.5635  -3.2348  -2.9924
    -0.7159  -0.6797  -0.6403  -0.5856  -0.5242  -0.4726  -0.4214  -0.3180
    -0.1291  -0.0429   0.0472   0.1083   0.3638   0.3924   0.4763   0.5208
     0.5607   0.5833   0.6015   0.6652   0.6863   0.7379   0.7799   0.8110
     0.8387   0.9182   0.9375   0.9984   1.0315   1.0750   1.1239   1.1587
     1.1758   1.1973   1.2281   1.2506   1.2650   1.3010   1.3469   1.3769
     1.3911   1.4025   1.4367   1.4667   1.4927   1.5363   1.5521   1.5791
     1.6050   1.6197   1.6279   1.6660   1.6958   1.7224   1.7638   1.7824
     1.8151   1.8357   1.8728   1.9208   1.9705   1.9982   2.0434   2.0764
     2.1288   2.1573   2.2516   2.3113   2.3792   2.4541   2.6575   2.8658

          k = 0.1250 0.3750 0.3750 (132616 PWs)   bands (ev):

   -18.4291 -18.4257 -18.4195 -18.4175 -18.4111 -18.4092 -18.4024 -18.4013
   -18.3810 -18.3247 -18.3190 -18.3162 -18.3039 -18.2987 -18.2903 -18.2794
   -18.2725 -18.2690 -18.2629 -18.2524 -18.2371 -18.2282 -18.2270 -18.2173
   -18.2057 -18.2013 -18.1997 -18.1996 -18.1915 -18.1871 -18.1868 -18.1864
   -18.1853 -18.1843 -18.1841 -18.1756 -18.1744 -18.1741 -18.1711 -18.1693
   -18.1676 -18.1657 -18.1554 -18.1451 -18.1415 -18.1170 -18.1148 -18.1114
    -9.3830  -9.3621  -9.3023  -9.2598  -9.2214  -9.1635  -9.1012  -9.0501
    -8.9983  -8.9742  -8.9158  -8.9005  -8.8765  -8.8706  -8.8499  -8.8087
    -8.7697  -8.7526  -8.7241  -8.6960  -8.6815  -8.6295  -8.5716  -8.5482
    -5.2407  -5.2109  -5.2010  -5.1947  -5.1889  -5.1858  -5.1773  -5.1766
    -5.1707  -5.1641  -5.1609  -5.1533  -5.0544  -5.0404  -5.0307  -5.0220
    -5.0169  -5.0081  -4.9990  -4.9862  -4.9704  -4.9233  -4.9121  -4.8981
    -4.1619  -4.0097  -3.8915  -3.7425  -3.6416  -3.4897  -3.3629  -3.1977
    -0.6709  -0.6052  -0.5591  -0.4979  -0.2695  -0.2535  -0.2041  -0.1441
    -0.0524   0.0246   0.0795   0.1845   0.3071   0.3582   0.3945   0.4598
     0.5150   0.5540   0.5601   0.6068   0.6175   0.6605   0.7093   0.7669
     0.8197   0.8438   0.8806   0.9421   0.9642   1.0074   1.0576   1.0824
     1.1346   1.1579   1.1812   1.2163   1.2245   1.2469   1.2898   1.3090
     1.3655   1.3867   1.4911   1.5103   1.5550   1.5579   1.5770   1.6003
     1.6166   1.6444   1.6707   1.6844   1.7320   1.7565   1.7920   1.8065
     1.8224   1.8440   1.8546   1.9165   1.9404   1.9622   1.9961   2.0153
     2.0696   2.0999   2.1437   2.2322   2.2733   2.3772   2.4914   2.5948

          k = 0.3750 0.3750 0.3750 (132612 PWs)   bands (ev):

   -18.4291 -18.4257 -18.4195 -18.4175 -18.4111 -18.4092 -18.4024 -18.4013
   -18.3810 -18.3247 -18.3190 -18.3162 -18.3039 -18.2987 -18.2903 -18.2794
   -18.2725 -18.2690 -18.2629 -18.2524 -18.2371 -18.2282 -18.2270 -18.2173
   -18.2057 -18.2013 -18.1997 -18.1997 -18.1915 -18.1871 -18.1868 -18.1864
   -18.1853 -18.1843 -18.1841 -18.1756 -18.1744 -18.1741 -18.1711 -18.1693
   -18.1676 -18.1657 -18.1554 -18.1451 -18.1415 -18.1170 -18.1148 -18.1114
    -9.3700  -9.3494  -9.3072  -9.2608  -9.2213  -9.1973  -9.1132  -9.0625
    -8.9951  -8.9692  -8.9071  -8.8875  -8.8709  -8.8670  -8.8302  -8.8123
    -8.7786  -8.7516  -8.7192  -8.6969  -8.6860  -8.6328  -8.5756  -8.5492
    -5.2407  -5.2109  -5.2007  -5.1946  -5.1890  -5.1863  -5.1772  -5.1766
    -5.1711  -5.1640  -5.1610  -5.1542  -5.0540  -5.0402  -5.0308  -5.0211
    -5.0156  -5.0081  -4.9980  -4.9880  -4.9698  -4.9237  -4.9120  -4.8981
    -4.0366  -3.9023  -3.8371  -3.7375  -3.6765  -3.6163  -3.5241  -3.3736
    -0.4474  -0.3963  -0.3341  -0.2954  -0.2261  -0.1701  -0.1142  -0.0438
    -0.0026   0.0458   0.0962   0.2223   0.2390   0.3207   0.3734   0.3957
     0.4768   0.4962   0.5200   0.5303   0.5680   0.5917   0.6310   0.6849
     0.8195   0.8674   0.8955   0.9163   0.9301   0.9865   1.0185   1.0497
     1.0802   1.1094   1.1324   1.1826   1.1874   1.2153   1.2382   1.2702
     1.3234   1.3907   1.4380   1.4975   1.5188   1.5381   1.5793   1.6109
     1.6380   1.6686   1.6905   1.7337   1.7535   1.7728   1.7891   1.8086
     1.8462   1.8548   1.8705   1.9022   1.9249   1.9500   1.9650   1.9973
     2.0187   2.0616   2.0945   2.1503   2.2056   2.2363   2.2693   2.3779

          k =-0.1250-0.1250 0.1250 (132670 PWs)   bands (ev):

   -18.4291 -18.4257 -18.4196 -18.4175 -18.4111 -18.4092 -18.4024 -18.4013
   -18.3810 -18.3247 -18.3190 -18.3162 -18.3039 -18.2987 -18.2903 -18.2794
   -18.2725 -18.2690 -18.2629 -18.2524 -18.2371 -18.2282 -18.2270 -18.2173
   -18.2057 -18.2013 -18.1997 -18.1997 -18.1915 -18.1873 -18.1869 -18.1863
   -18.1853 -18.1843 -18.1840 -18.1756 -18.1744 -18.1741 -18.1711 -18.1693
   -18.1676 -18.1657 -18.1554 -18.1451 -18.1415 -18.1170 -18.1148 -18.1114
    -9.4282  -9.3448  -9.3065  -9.2430  -9.1948  -9.1483  -9.0991  -9.0188
    -8.9971  -8.9809  -8.9316  -8.8953  -8.8832  -8.8722  -8.8559  -8.8414
    -8.7957  -8.7606  -8.7235  -8.6933  -8.6764  -8.6156  -8.5667  -8.5382
    -5.2408  -5.2113  -5.2023  -5.1940  -5.1889  -5.1866  -5.1789  -5.1739
    -5.1721  -5.1637  -5.1602  -5.1531  -5.0549  -5.0406  -5.0306  -5.0226
    -5.0156  -5.0082  -4.9989  -4.9862  -4.9700  -4.9235  -4.9119  -4.8981
    -4.4084  -3.9351  -3.9108  -3.8703  -3.4110  -3.3837  -3.3477  -2.8033
    -0.7653  -0.7265  -0.6762  -0.6654  -0.5567  -0.5150  -0.4819  -0.3986
    -0.3637  -0.2710  -0.2180  -0.1760   0.4381   0.4861   0.5056   0.5923
     0.6276   0.6508   0.7019   0.7347   0.7726   0.8260   0.8696   0.9117
     0.9716   0.9868   1.0286   1.0486   1.0743   1.1171   1.1388   1.1803
     1.1975   1.2233   1.2449   1.2627   1.2889   1.3261   1.3546   1.3850
     1.3917   1.4098   1.4278   1.4417   1.4717   1.4912   1.5302   1.5587
     1.5708   1.5997   1.6411   1.6558   1.6704   1.7064   1.7405   1.7733
     1.8317   1.8446   1.8736   1.9321   1.9984   2.0367   2.0744   2.1007
     2.1490   2.2334   2.2446   2.2991   2.6012   2.6359   2.7273   3.0754

          k =-0.1250 0.1250-0.1250 (132670 PWs)   bands (ev):

   -18.4291 -18.4257 -18.4196 -18.4175 -18.4111 -18.4092 -18.4024 -18.4013
   -18.3810 -18.3247 -18.3190 -18.3162 -18.3039 -18.2987 -18.2903 -18.2794
   -18.2725 -18.2690 -18.2629 -18.2524 -18.2371 -18.2282 -18.2270 -18.2173
   -18.2057 -18.2013 -18.1997 -18.1997 -18.1915 -18.1873 -18.1869 -18.1863
   -18.1853 -18.1843 -18.1840 -18.1756 -18.1744 -18.1741 -18.1711 -18.1693
   -18.1676 -18.1657 -18.1554 -18.1451 -18.1415 -18.1170 -18.1148 -18.1114
    -9.4274  -9.3478  -9.3037  -9.2466  -9.1892  -9.1482  -9.1008  -9.0230
    -9.0036  -8.9682  -8.9332  -8.8965  -8.8843  -8.8761  -8.8526  -8.8366
    -8.7958  -8.7669  -8.7209  -8.6903  -8.6778  -8.6167  -8.5664  -8.5381
    -5.2410  -5.2112  -5.2018  -5.1945  -5.1888  -5.1863  -5.1789  -5.1739
    -5.1721  -5.1638  -5.1602  -5.1531  -5.0548  -5.0406  -5.0306  -5.0229
    -5.0155  -5.0082  -4.9988  -4.9862  -4.9701  -4.9235  -4.9120  -4.8981
    -4.4076  -3.9489  -3.9024  -3.8650  -3.4042  -3.3975  -3.3411  -2.8035
    -0.7660  -0.7251  -0.6847  -0.6381  -0.5741  -0.5128  -0.4998  -0.4120
    -0.3418  -0.2733  -0.2099  -0.1739   0.4391   0.4778   0.5122   0.5916
     0.6204   0.6728   0.7134   0.7357   0.7502   0.8243   0.8653   0.9125
     0.9436   0.9873   1.0204   1.0513   1.0930   1.1154   1.1571   1.1748
     1.1934   1.2217   1.2404   1.2853   1.2943   1.3192   1.3513   1.3624
     1.3835   1.4112   1.4478   1.4517   1.4756   1.5040   1.5353   1.5569
     1.5809   1.5997   1.6174   1.6395   1.6738   1.6980   1.7452   1.7794
     1.8252   1.8498   1.8782   1.9350   1.9914   2.0351   2.0643   2.0921
     2.1663   2.2008   2.2552   2.3249   2.5950   2.6487   2.7207   3.0745

          k = 0.1250-0.1250-0.1250 (132670 PWs)   bands (ev):

   -18.4291 -18.4257 -18.4196 -18.4175 -18.4111 -18.4092 -18.4024 -18.4013
   -18.3810 -18.3247 -18.3190 -18.3162 -18.3039 -18.2987 -18.2903 -18.2794
   -18.2725 -18.2690 -18.2629 -18.2524 -18.2371 -18.2282 -18.2270 -18.2173
   -18.2057 -18.2013 -18.1997 -18.1997 -18.1915 -18.1873 -18.1869 -18.1863
   -18.1853 -18.1843 -18.1840 -18.1756 -18.1744 -18.1741 -18.1711 -18.1693
   -18.1676 -18.1657 -18.1554 -18.1451 -18.1415 -18.1170 -18.1148 -18.1114
    -9.4268  -9.3505  -9.3010  -9.2456  -9.1936  -9.1484  -9.0969  -9.0237
    -8.9938  -8.9787  -8.9337  -8.8966  -8.8841  -8.8742  -8.8588  -8.8327
    -8.7927  -8.7672  -8.7240  -8.6889  -8.6778  -8.6165  -8.5665  -8.5381
    -5.2410  -5.2111  -5.2021  -5.1945  -5.1887  -5.1863  -5.1786  -5.1742
    -5.1718  -5.1640  -5.1603  -5.1530  -5.0549  -5.0406  -5.0305  -5.0229
    -5.0154  -5.0082  -4.9988  -4.9861  -4.9701  -4.9236  -4.9119  -4.8980
    -4.4076  -3.9411  -3.9225  -3.8516  -3.4247  -3.3773  -3.3408  -2.8051
    -0.7641  -0.7212  -0.6714  -0.6471  -0.5754  -0.5257  -0.4907  -0.4049
    -0.3662  -0.2555  -0.2175  -0.1753   0.4356   0.4787   0.5031   0.5945
     0.6375   0.6746   0.7048   0.7341   0.7501   0.8292   0.8730   0.9157
     0.9332   0.9987   1.0296   1.0490   1.0854   1.1246   1.1580   1.1854
     1.1913   1.2078   1.2316   1.2592   1.2900   1.3134   1.3283   1.3743
     1.4041   1.4213   1.4442   1.4598   1.4719   1.5033   1.5452   1.5552
     1.5715   1.6036   1.6311   1.6538   1.6744   1.7013   1.7440   1.7785
     1.8067   1.8511   1.8737   1.9388   1.9890   2.0307   2.0685   2.1059
     2.1403   2.2190   2.2586   2.3087   2.5862   2.6444   2.7258   3.0886

          k =-0.1250-0.1250 0.3750 (132608 PWs)   bands (ev):

   -18.4291 -18.4257 -18.4195 -18.4175 -18.4111 -18.4092 -18.4024 -18.4013
   -18.3810 -18.3247 -18.3190 -18.3162 -18.3039 -18.2987 -18.2903 -18.2794
   -18.2725 -18.2690 -18.2629 -18.2524 -18.2371 -18.2282 -18.2270 -18.2173
   -18.2057 -18.2013 -18.1997 -18.1997 -18.1915 -18.1873 -18.1869 -18.1863
   -18.1853 -18.1843 -18.1840 -18.1756 -18.1744 -18.1741 -18.1711 -18.1693
   -18.1676 -18.1657 -18.1554 -18.1451 -18.1415 -18.1170 -18.1148 -18.1114
    -9.4043  -9.3628  -9.2946  -9.2510  -9.2163  -9.1532  -9.1014  -9.0208
    -9.0041  -8.9734  -8.9214  -8.8917  -8.8841  -8.8748  -8.8588  -8.8418
    -8.7864  -8.7448  -8.7162  -8.6950  -8.6767  -8.6197  -8.5708  -8.5468
    -5.2410  -5.2112  -5.2017  -5.1939  -5.1889  -5.1866  -5.1785  -5.1742
    -5.1720  -5.1630  -5.1610  -5.1533  -5.0548  -5.0407  -5.0306  -5.0229
    -5.0157  -5.0082  -4.9990  -4.9861  -4.9703  -4.9234  -4.9120  -4.8981
    -4.2878  -4.0848  -3.7909  -3.7558  -3.5717  -3.5537  -3.2405  -2.9910
    -0.7242  -0.6746  -0.6270  -0.5681  -0.5477  -0.4653  -0.4079  -0.3277
    -0.1596  -0.0236   0.0370   0.0927   0.3753   0.3976   0.4731   0.5166
     0.5511   0.5743   0.6293   0.6712   0.6891   0.7147   0.7753   0.8276
     0.8718   0.9273   0.9422   0.9816   1.0413   1.0598   1.1196   1.1425
     1.1677   1.1994   1.2247   1.2503   1.2844   1.3119   1.3340   1.3750
     1.3832   1.4079   1.4272   1.4568   1.4946   1.5281   1.5459   1.5857
     1.6064   1.6305   1.6452   1.6774   1.6937   1.7264   1.7473   1.7869
     1.8006   1.8374   1.8798   1.9292   1.9762   2.0025   2.0364   2.0770
     2.1347   2.1438   2.2390   2.3091   2.3864   2.4554   2.6718   2.8483

          k =-0.1250 0.1250-0.3750 (132608 PWs)   bands (ev):

   -18.4291 -18.4257 -18.4195 -18.4175 -18.4111 -18.4092 -18.4024 -18.4013
   -18.3810 -18.3247 -18.3190 -18.3162 -18.3039 -18.2987 -18.2903 -18.2794
   -18.2725 -18.2690 -18.2629 -18.2524 -18.2371 -18.2282 -18.2270 -18.2173
   -18.2057 -18.2013 -18.1997 -18.1997 -18.1915 -18.1873 -18.1869 -18.1863
   -18.1853 -18.1843 -18.1840 -18.1756 -18.1744 -18.1741 -18.1711 -18.1693
   -18.1676 -18.1657 -18.1554 -18.1451 -18.1415 -18.1170 -18.1148 -18.1114
    -9.4036  -9.3630  -9.2973  -9.2521  -9.2113  -9.1516  -9.1051  -9.0227
    -9.0064  -8.9679  -8.9197  -8.8929  -8.8859  -8.8757  -8.8580  -8.8413
    -8.7854  -8.7484  -8.7138  -8.6933  -8.6772  -8.6211  -8.5706  -8.5467
    -5.2411  -5.2111  -5.2013  -5.1944  -5.1887  -5.1864  -5.1786  -5.1741
    -5.1721  -5.1632  -5.1609  -5.1533  -5.0547  -5.0408  -5.0306  -5.0231
    -5.0155  -5.0082  -4.9990  -4.9861  -4.9704  -4.9233  -4.9121  -4.8981
    -4.2864  -4.0879  -3.7957  -3.7477  -3.5787  -3.5476  -3.2409  -2.9913
    -0.7176  -0.6555  -0.6358  -0.5836  -0.5490  -0.4856  -0.4058  -0.3274
    -0.1295  -0.0346   0.0443   0.0981   0.3655   0.3831   0.4764   0.5296
     0.5635   0.5865   0.6115   0.6589   0.6903   0.7347   0.7701   0.8155
     0.8513   0.9058   0.9381   0.9807   1.0460   1.0774   1.1292   1.1457
     1.1653   1.2000   1.2293   1.2722   1.2743   1.3059   1.3367   1.3735
     1.4005   1.4079   1.4267   1.4548   1.4968   1.5377   1.5567   1.5874
     1.5997   1.6155   1.6407   1.6532   1.6917   1.7153   1.7692   1.7838
     1.8195   1.8361   1.8839   1.9273   1.9703   1.9863   2.0265   2.0638
     2.1263   2.1624   2.2446   2.3281   2.3958   2.4409   2.6701   2.8501

          k = 0.1250-0.1250-0.3750 (132608 PWs)   bands (ev):

   -18.4291 -18.4257 -18.4195 -18.4175 -18.4111 -18.4092 -18.4024 -18.4013
   -18.3810 -18.3247 -18.3190 -18.3162 -18.3039 -18.2987 -18.2903 -18.2794
   -18.2725 -18.2690 -18.2629 -18.2524 -18.2371 -18.2282 -18.2270 -18.2173
   -18.2057 -18.2013 -18.1997 -18.1997 -18.1915 -18.1873 -18.1869 -18.1863
   -18.1853 -18.1843 -18.1840 -18.1756 -18.1744 -18.1741 -18.1711 -18.1693
   -18.1676 -18.1657 -18.1554 -18.1451 -18.1415 -18.1170 -18.1148 -18.1114
    -9.4014  -9.3674  -9.2928  -9.2539  -9.2120  -9.1558  -9.0991  -9.0244
    -8.9993  -8.9750  -8.9199  -8.8965  -8.8842  -8.8714  -8.8639  -8.8382
    -8.7839  -8.7473  -8.7177  -8.6918  -8.6769  -8.6208  -8.5706  -8.5467
    -5.2411  -5.2110  -5.2015  -5.1944  -5.1886  -5.1863  -5.1782  -5.1743
    -5.1720  -5.1634  -5.1611  -5.1533  -5.0548  -5.0407  -5.0305  -5.0231
    -5.0154  -5.0082  -4.9990  -4.9860  -4.9704  -4.9235  -4.9120  -4.8981
    -4.2861  -4.0891  -3.7990  -3.7403  -3.5823  -3.5490  -3.2363  -2.9945
    -0.7152  -0.6665  -0.6272  -0.5898  -0.5388  -0.4691  -0.4126  -0.3243
    -0.1608  -0.0331   0.0368   0.1073   0.3702   0.4056   0.4720   0.5078
     0.5463   0.5875   0.6235   0.6683   0.6953   0.7171   0.7739   0.8223
     0.8666   0.9252   0.9463   0.9942   1.0344   1.0734   1.1004   1.1357
     1.1769   1.1865   1.2202   1.2629   1.2810   1.3307   1.3461   1.3569
     1.3861   1.4046   1.4343   1.4524   1.5096   1.5312   1.5504   1.5699
     1.6136   1.6389   1.6555   1.6713   1.6977   1.7181   1.7439   1.7788
     1.7898   1.8398   1.8874   1.9148   1.9674   2.0062   2.0372   2.0804
     2.1211   2.1485   2.2516   2.3086   2.3692   2.4654   2.6646   2.8642

          k = 0.3750-0.1250 0.1250 (132608 PWs)   bands (ev):

   -18.4291 -18.4257 -18.4195 -18.4175 -18.4111 -18.4092 -18.4024 -18.4013
   -18.3810 -18.3247 -18.3190 -18.3162 -18.3039 -18.2987 -18.2903 -18.2794
   -18.2725 -18.2690 -18.2629 -18.2524 -18.2371 -18.2282 -18.2270 -18.2173
   -18.2057 -18.2013 -18.1997 -18.1997 -18.1915 -18.1873 -18.1869 -18.1863
   -18.1853 -18.1843 -18.1840 -18.1756 -18.1744 -18.1741 -18.1711 -18.1693
   -18.1676 -18.1657 -18.1554 -18.1451 -18.1415 -18.1170 -18.1148 -18.1114
    -9.4065  -9.3593  -9.2992  -9.2511  -9.1881  -9.1794  -9.1047  -9.0259
    -9.0022  -8.9716  -8.9302  -8.8845  -8.8802  -8.8669  -8.8456  -8.8312
    -8.8042  -8.7566  -8.7146  -8.6916  -8.6822  -8.6253  -8.5706  -8.5393
    -5.2407  -5.2109  -5.2002  -5.1959  -5.1887  -5.1866  -5.1790  -5.1738
    -5.1724  -5.1641  -5.1601  -5.1538  -5.0543  -5.0405  -5.0308  -5.0215
    -5.0151  -5.0084  -4.9980  -4.9881  -4.9697  -4.9239  -4.9120  -4.8982
    -4.2805  -4.0782  -3.7931  -3.7649  -3.5646  -3.5486  -3.2631  -3.0051
    -0.7076  -0.6775  -0.5921  -0.5644  -0.5381  -0.4533  -0.3845  -0.3167
    -0.0917  -0.0422  -0.0034   0.0574   0.3650   0.4465   0.4972   0.5273
     0.5658   0.5715   0.5883   0.6332   0.6842   0.6912   0.7244   0.8190
     0.8703   0.8984   0.9557   0.9758   1.0284   1.0732   1.1203   1.1399
     1.1937   1.2193   1.2484   1.2695   1.3078   1.3227   1.3564   1.3824
     1.3966   1.4063   1.4273   1.4509   1.4811   1.4981   1.5305   1.5510
     1.5806   1.6071   1.6373   1.6555   1.6902   1.7277   1.7493   1.7801
     1.8239   1.8611   1.9040   1.9279   1.9535   1.9837   2.0156   2.0526
     2.1051   2.1342   2.2123   2.3189   2.4255   2.5070   2.6387   2.8680

          k =-0.3750-0.1250-0.1250 (132608 PWs)   bands (ev):

   -18.4291 -18.4257 -18.4195 -18.4175 -18.4111 -18.4092 -18.4024 -18.4013
   -18.3810 -18.3247 -18.3190 -18.3162 -18.3039 -18.2987 -18.2903 -18.2794
   -18.2725 -18.2690 -18.2629 -18.2524 -18.2371 -18.2282 -18.2270 -18.2173
   -18.2057 -18.2013 -18.1997 -18.1997 -18.1915 -18.1873 -18.1869 -18.1863
   -18.1853 -18.1843 -18.1840 -18.1756 -18.1744 -18.1741 -18.1711 -18.1693
   -18.1676 -18.1657 -18.1554 -18.1451 -18.1415 -18.1170 -18.1148 -18.1114
    -9.4073  -9.3551  -9.3058  -9.2464  -9.1908  -9.1797  -9.1053  -9.0187
    -8.9995  -8.9742  -8.9337  -8.8922  -8.8814  -8.8679  -8.8423  -8.8283
    -8.8002  -8.7560  -8.7186  -8.6921  -8.6806  -8.6248  -8.5709  -8.5393
    -5.2405  -5.2110  -5.2010  -5.1951  -5.1889  -5.1867  -5.1786  -5.1742
    -5.1722  -5.1641  -5.1601  -5.1538  -5.0544  -5.0404  -5.0307  -5.0213
    -5.0153  -5.0085  -4.9981  -4.9880  -4.9696  -4.9240  -4.9119  -4.8982
    -4.2811  -4.0753  -3.8117  -3.7479  -3.5840  -3.5280  -3.2654  -3.0044
    -0.6969  -0.6880  -0.6116  -0.5699  -0.5407  -0.4372  -0.3727  -0.3146
    -0.0915  -0.0300  -0.0087   0.0562   0.3573   0.4582   0.4825   0.5394
     0.5473   0.5661   0.6024   0.6394   0.6648   0.7020   0.7303   0.8040
     0.8545   0.9078   0.9414   1.0059   1.0589   1.0983   1.1119   1.1404
     1.1808   1.1992   1.2347   1.2664   1.2963   1.3339   1.3513   1.3707
     1.3996   1.4084   1.4331   1.4524   1.4841   1.5014   1.5289   1.5503
     1.5706   1.6084   1.6277   1.6568   1.6980   1.7364   1.7485   1.7909
     1.8193   1.8413   1.9049   1.9245   1.9604   1.9866   2.0371   2.0618
     2.1044   2.1366   2.1961   2.3098   2.4212   2.4983   2.6546   2.8758

          k = 0.3750 0.1250-0.1250 (132608 PWs)   bands (ev):

   -18.4291 -18.4257 -18.4195 -18.4175 -18.4111 -18.4092 -18.4024 -18.4013
   -18.3810 -18.3247 -18.3190 -18.3162 -18.3039 -18.2987 -18.2903 -18.2794
   -18.2725 -18.2690 -18.2629 -18.2524 -18.2371 -18.2282 -18.2270 -18.2173
   -18.2057 -18.2013 -18.1997 -18.1997 -18.1915 -18.1873 -18.1869 -18.1863
   -18.1853 -18.1843 -18.1840 -18.1756 -18.1744 -18.1741 -18.1711 -18.1693
   -18.1676 -18.1657 -18.1554 -18.1451 -18.1415 -18.1170 -18.1148 -18.1114
    -9.4082  -9.3551  -9.3029  -9.2451  -9.2017  -9.1721  -9.1036  -9.0228
    -8.9980  -8.9797  -8.9289  -8.8875  -8.8763  -8.8659  -8.8436  -8.8370
    -8.8051  -8.7496  -8.7189  -8.6917  -8.6830  -8.6237  -8.5710  -8.5394
    -5.2405  -5.2110  -5.2010  -5.1951  -5.1889  -5.1868  -5.1789  -5.1738
    -5.1724  -5.1639  -5.1601  -5.1538  -5.0545  -5.0404  -5.0308  -5.0212
    -5.0152  -5.0084  -4.9981  -4.9882  -4.9696  -4.9239  -4.9119  -4.8983
    -4.2829  -4.0725  -3.7974  -3.7662  -3.5693  -3.5403  -3.2654  -3.0044
    -0.7057  -0.6696  -0.6140  -0.5805  -0.5144  -0.4571  -0.3528  -0.3231
    -0.0904  -0.0613  -0.0163   0.0576   0.3633   0.4610   0.5060   0.5250
     0.5603   0.5725   0.5968   0.6315   0.6793   0.6929   0.7327   0.7880
     0.8768   0.9105   0.9390   1.0121   1.0318   1.0751   1.1157   1.1353
     1.1806   1.2270   1.2470   1.2625   1.2990   1.3238   1.3525   1.3671
     1.3893   1.4124   1.4392   1.4565   1.4846   1.4954   1.5353   1.5495
     1.5780   1.6029   1.6383   1.6766   1.6948   1.7327   1.7528   1.7697
     1.7976   1.8568   1.9010   1.9288   1.9519   1.9698   2.0385   2.0671
     2.1186   2.1409   2.2031   2.3070   2.4255   2.5004   2.6428   2.8670

          k =-0.3750 0.1250 0.1250 (132608 PWs)   bands (ev):

   -18.4291 -18.4257 -18.4195 -18.4175 -18.4111 -18.4092 -18.4024 -18.4013
   -18.3810 -18.3247 -18.3190 -18.3162 -18.3039 -18.2987 -18.2903 -18.2794
   -18.2725 -18.2690 -18.2629 -18.2524 -18.2371 -18.2282 -18.2270 -18.2173
   -18.2057 -18.2013 -18.1997 -18.1997 -18.1915 -18.1873 -18.1869 -18.1863
   -18.1853 -18.1843 -18.1840 -18.1756 -18.1744 -18.1741 -18.1711 -18.1693
   -18.1676 -18.1657 -18.1554 -18.1451 -18.1415 -18.1170 -18.1148 -18.1114
    -9.4059  -9.3603  -9.2978  -9.2492  -9.2044  -9.1676  -9.1001  -9.0287
    -8.9985  -8.9735  -8.9315  -8.8892  -8.8794  -8.8617  -8.8498  -8.8331
    -8.8005  -8.7545  -8.7158  -8.6906  -8.6840  -8.6248  -8.5707  -8.5393
    -5.2407  -5.2108  -5.2004  -5.1959  -5.1887  -5.1865  -5.1787  -5.1742
    -5.1721  -5.1643  -5.1602  -5.1538  -5.0545  -5.0405  -5.0307  -5.0214
    -5.0150  -5.0084  -4.9980  -4.9880  -4.9697  -4.9240  -4.9119  -4.8982
    -4.2815  -4.0748  -3.8121  -3.7481  -3.5843  -3.5259  -3.2652  -3.0068
    -0.7015  -0.6671  -0.6115  -0.5756  -0.5272  -0.4486  -0.3590  -0.3297
    -0.0883  -0.0653  -0.0138   0.0549   0.3620   0.4528   0.5001   0.5265
     0.5657   0.5889   0.6066   0.6281   0.6628   0.7125   0.7369   0.7834
     0.8735   0.8831   0.9470   1.0174   1.0441   1.0824   1.1150   1.1561
     1.1731   1.2172   1.2481   1.2634   1.2892   1.3219   1.3406   1.3663
     1.3824   1.4099   1.4344   1.4564   1.4857   1.5071   1.5350   1.5551
     1.5871   1.6144   1.6296   1.6699   1.6871   1.7370   1.7536   1.7832
     1.8044   1.8556   1.8876   1.9283   1.9553   1.9748   2.0315   2.0674
     2.1096   2.1510   2.1916   2.2901   2.4271   2.4987   2.6585   2.8756

          k =-0.1250 0.3750 0.1250 (132608 PWs)   bands (ev):

   -18.4291 -18.4257 -18.4195 -18.4175 -18.4111 -18.4092 -18.4024 -18.4013
   -18.3810 -18.3247 -18.3190 -18.3162 -18.3039 -18.2987 -18.2903 -18.2794
   -18.2725 -18.2690 -18.2629 -18.2524 -18.2371 -18.2282 -18.2270 -18.2173
   -18.2057 -18.2013 -18.1997 -18.1996 -18.1915 -18.1871 -18.1868 -18.1864
   -18.1853 -18.1843 -18.1840 -18.1756 -18.1744 -18.1741 -18.1711 -18.1693
   -18.1676 -18.1657 -18.1554 -18.1451 -18.1415 -18.1170 -18.1148 -18.1114
    -9.4035  -9.3640  -9.3062  -9.2350  -9.2023  -9.1644  -9.1012  -9.0482
    -8.9950  -8.9754  -8.9245  -8.8930  -8.8755  -8.8698  -8.8606  -8.8197
    -8.7741  -8.7592  -8.7218  -8.6976  -8.6860  -8.6260  -8.5664  -8.5416
    -5.2406  -5.2108  -5.2006  -5.1956  -5.1887  -5.1852  -5.1773  -5.1758
    -5.1714  -5.1649  -5.1609  -5.1532  -5.0546  -5.0403  -5.0307  -5.0221
    -5.0162  -5.0080  -4.9989  -4.9866  -4.9702  -4.9236  -4.9121  -4.8981
    -4.2826  -4.0728  -3.8037  -3.7529  -3.5833  -3.5409  -3.2448  -3.0215
    -0.7383  -0.6703  -0.6409  -0.6067  -0.4419  -0.3923  -0.3492  -0.2946
    -0.1071  -0.0695  -0.0162   0.0239   0.3754   0.4599   0.4796   0.5116
     0.5278   0.5784   0.6172   0.6452   0.6737   0.6944   0.7569   0.7938
     0.8151   0.8954   0.9888   1.0046   1.0308   1.0596   1.1241   1.1452
     1.1838   1.2137   1.2228   1.2619   1.2903   1.3151   1.3396   1.3599
     1.3815   1.4155   1.4463   1.4769   1.5009   1.5242   1.5559   1.5825
     1.6001   1.6409   1.6493   1.6698   1.7150   1.7276   1.7420   1.7836
     1.8134   1.8557   1.8732   1.9143   1.9488   1.9656   1.9973   2.0516
     2.0931   2.1446   2.2030   2.2842   2.3947   2.4693   2.7005   2.8357

          k =-0.1250-0.3750-0.1250 (132608 PWs)   bands (ev):

   -18.4291 -18.4257 -18.4195 -18.4175 -18.4111 -18.4092 -18.4024 -18.4013
   -18.3810 -18.3247 -18.3190 -18.3162 -18.3039 -18.2987 -18.2903 -18.2794
   -18.2725 -18.2690 -18.2629 -18.2524 -18.2371 -18.2282 -18.2270 -18.2173
   -18.2057 -18.2013 -18.1997 -18.1996 -18.1915 -18.1871 -18.1868 -18.1864
   -18.1853 -18.1843 -18.1840 -18.1756 -18.1744 -18.1741 -18.1711 -18.1693
   -18.1676 -18.1657 -18.1554 -18.1451 -18.1415 -18.1170 -18.1148 -18.1114
    -9.4053  -9.3593  -9.3105  -9.2336  -9.1984  -9.1699  -9.1036  -9.0410
    -8.9944  -8.9763  -8.9253  -8.9029  -8.8761  -8.8664  -8.8569  -8.8178
    -8.7747  -8.7567  -8.7247  -8.7012  -8.6822  -8.6258  -8.5667  -8.5415
    -5.2404  -5.2109  -5.2012  -5.1947  -5.1889  -5.1855  -5.1772  -5.1757
    -5.1716  -5.1648  -5.1608  -5.1533  -5.0545  -5.0403  -5.0306  -5.0218
    -5.0167  -5.0080  -4.9990  -4.9865  -4.9701  -4.9236  -4.9121  -4.8981
    -4.2831  -4.0698  -3.8108  -3.7486  -3.5876  -3.5370  -3.2455  -3.0192
    -0.7436  -0.6813  -0.6515  -0.6055  -0.4272  -0.3937  -0.3258  -0.2920
    -0.1149  -0.0870  -0.0044   0.0346   0.3817   0.4549   0.4770   0.5185
     0.5267   0.5662   0.6093   0.6502   0.6731   0.6921   0.7410   0.7998
     0.8336   0.8975   0.9779   1.0067   1.0442   1.0760   1.1001   1.1213
     1.1643   1.2086   1.2390   1.2614   1.3013   1.3108   1.3315   1.3656
     1.3991   1.4390   1.4522   1.4670   1.4954   1.5393   1.5448   1.5701
     1.5916   1.6314   1.6490   1.6709   1.6946   1.7422   1.7607   1.7951
     1.8139   1.8474   1.8619   1.9218   1.9334   1.9781   1.9994   2.0385
     2.1036   2.1458   2.2141   2.2748   2.4219   2.4473   2.7011   2.8390

          k = 0.1250 0.3750-0.1250 (132608 PWs)   bands (ev):

   -18.4291 -18.4257 -18.4195 -18.4175 -18.4111 -18.4092 -18.4024 -18.4013
   -18.3810 -18.3247 -18.3190 -18.3162 -18.3039 -18.2987 -18.2903 -18.2794
   -18.2725 -18.2690 -18.2629 -18.2524 -18.2371 -18.2282 -18.2270 -18.2173
   -18.2057 -18.2013 -18.1997 -18.1996 -18.1915 -18.1871 -18.1868 -18.1864
   -18.1853 -18.1843 -18.1840 -18.1756 -18.1744 -18.1741 -18.1711 -18.1693
   -18.1676 -18.1657 -18.1554 -18.1451 -18.1415 -18.1170 -18.1148 -18.1114
    -9.4073  -9.3553  -9.3123  -9.2315  -9.2049  -9.1636  -9.1042  -9.0451
    -8.9941  -8.9792  -8.9213  -8.8952  -8.8735  -8.8684  -8.8570  -8.8287
    -8.7764  -8.7506  -8.7207  -8.7039  -8.6848  -8.6247  -8.5666  -8.5417
    -5.2404  -5.2110  -5.2010  -5.1949  -5.1890  -5.1855  -5.1779  -5.1751
    -5.1717  -5.1645  -5.1608  -5.1532  -5.0545  -5.0403  -5.0307  -5.0217
    -5.0166  -5.0080  -4.9990  -4.9867  -4.9702  -4.9235  -4.9121  -4.8982
    -4.2851  -4.0660  -3.7953  -3.7733  -3.5721  -3.5408  -3.2527  -3.0168
    -0.7380  -0.6697  -0.6442  -0.6210  -0.4390  -0.3840  -0.3376  -0.2843
    -0.1097  -0.0751  -0.0322   0.0330   0.3875   0.4506   0.4787   0.5078
     0.5440   0.5599   0.5988   0.6336   0.6747   0.7093   0.7498   0.8085
     0.8426   0.9010   0.9741   0.9975   1.0335   1.0583   1.1152   1.1421
     1.1761   1.2047   1.2459   1.2702   1.2840   1.3080   1.3510   1.3561
     1.3829   1.4237   1.4581   1.4741   1.4860   1.5180   1.5644   1.5842
     1.5989   1.6224   1.6369   1.6649   1.7055   1.7287   1.7530   1.8059
     1.8126   1.8434   1.8771   1.9222   1.9405   1.9798   1.9991   2.0358
     2.1135   2.1585   2.2037   2.2595   2.4173   2.4529   2.7126   2.8188

          k = 0.1250-0.3750 0.1250 (132608 PWs)   bands (ev):

   -18.4291 -18.4257 -18.4195 -18.4175 -18.4111 -18.4092 -18.4024 -18.4013
   -18.3810 -18.3247 -18.3190 -18.3162 -18.3039 -18.2987 -18.2903 -18.2794
   -18.2725 -18.2690 -18.2629 -18.2524 -18.2371 -18.2282 -18.2270 -18.2173
   -18.2057 -18.2013 -18.1997 -18.1996 -18.1915 -18.1871 -18.1868 -18.1864
   -18.1853 -18.1843 -18.1840 -18.1756 -18.1744 -18.1741 -18.1711 -18.1693
   -18.1676 -18.1657 -18.1554 -18.1451 -18.1415 -18.1170 -18.1148 -18.1114
    -9.4056  -9.3601  -9.3075  -9.2363  -9.2023  -9.1637  -9.0996  -9.0488
    -9.0004  -8.9728  -8.9214  -8.8968  -8.8772  -8.8689  -8.8477  -8.8308
    -8.7773  -8.7552  -8.7169  -8.7014  -8.6863  -8.6260  -8.5664  -8.5416
    -5.2406  -5.2109  -5.2003  -5.1956  -5.1888  -5.1852  -5.1780  -5.1750
    -5.1718  -5.1648  -5.1608  -5.1532  -5.0544  -5.0404  -5.0307  -5.0220
    -5.0164  -5.0080  -4.9989  -4.9866  -4.9702  -4.9235  -4.9122  -4.8982
    -4.2837  -4.0683  -3.7994  -3.7676  -3.5771  -3.5373  -3.2507  -3.0180
    -0.7414  -0.6824  -0.6407  -0.6065  -0.4345  -0.3821  -0.3429  -0.2898
    -0.0990  -0.0657  -0.0509   0.0326   0.3810   0.4459   0.4720   0.5178
     0.5412   0.5724   0.6022   0.6501   0.6806   0.6962   0.7531   0.7949
     0.8345   0.8986   0.9719   1.0101   1.0350   1.0671   1.1032   1.1456
     1.1743   1.2034   1.2430   1.2510   1.2831   1.3069   1.3456   1.3639
     1.4111   1.4252   1.4505   1.4788   1.5038   1.5384   1.5455   1.5604
     1.5889   1.6169   1.6497   1.6782   1.7086   1.7274   1.7488   1.7867
     1.8222   1.8490   1.8740   1.9220   1.9434   1.9673   1.9900   2.0562
     2.0944   2.1578   2.1881   2.3016   2.3802   2.4832   2.7081   2.8217

          k =-0.1250-0.3750 0.3750 (132616 PWs)   bands (ev):

   -18.4291 -18.4257 -18.4195 -18.4175 -18.4111 -18.4092 -18.4024 -18.4013
   -18.3810 -18.3247 -18.3190 -18.3162 -18.3039 -18.2987 -18.2903 -18.2794
   -18.2725 -18.2690 -18.2629 -18.2524 -18.2371 -18.2282 -18.2270 -18.2173
   -18.2057 -18.2013 -18.1997 -18.1996 -18.1915 -18.1871 -18.1868 -18.1864
   -18.1853 -18.1843 -18.1840 -18.1756 -18.1744 -18.1741 -18.1711 -18.1693
   -18.1676 -18.1657 -18.1554 -18.1451 -18.1415 -18.1170 -18.1148 -18.1114
    -9.3885  -9.3530  -9.3063  -9.2569  -9.2267  -9.1566  -9.1050  -9.0524
    -8.9982  -8.9770  -8.9111  -8.8939  -8.8746  -8.8706  -8.8550  -8.8162
    -8.7712  -8.7464  -8.7209  -8.6979  -8.6846  -8.6281  -8.5715  -8.5485
    -5.2407  -5.2109  -5.2008  -5.1949  -5.1890  -5.1857  -5.1781  -5.1761
    -5.1706  -5.1640  -5.1608  -5.1533  -5.0544  -5.0404  -5.0308  -5.0219
    -5.0167  -5.0080  -4.9990  -4.9863  -4.9705  -4.9232  -4.9121  -4.8981
    -4.1696  -3.9755  -3.9233  -3.7377  -3.6475  -3.4387  -3.4164  -3.1890
    -0.6742  -0.5950  -0.5505  -0.4871  -0.3298  -0.2526  -0.1652  -0.1255
    -0.0576   0.0256   0.0637   0.1468   0.2827   0.3940   0.4134   0.4681
     0.5183   0.5367   0.5703   0.5869   0.6375   0.6601   0.7068   0.7655
     0.7945   0.8653   0.8921   0.9444   0.9859   1.0160   1.0443   1.0804
     1.1185   1.1451   1.1962   1.2060   1.2326   1.2444   1.2845   1.3109
     1.3638   1.3996   1.4911   1.5154   1.5312   1.5479   1.5870   1.5966
     1.6317   1.6489   1.6615   1.6848   1.7272   1.7418   1.7817   1.8130
     1.8354   1.8456   1.8750   1.9086   1.9412   1.9699   1.9895   2.0285
     2.0713   2.0935   2.1433   2.2236   2.2511   2.4106   2.4947   2.5725

          k =-0.1250 0.3750-0.3750 (132616 PWs)   bands (ev):

   -18.4291 -18.4257 -18.4195 -18.4175 -18.4111 -18.4092 -18.4024 -18.4013
   -18.3810 -18.3247 -18.3190 -18.3162 -18.3039 -18.2987 -18.2903 -18.2794
   -18.2725 -18.2690 -18.2629 -18.2524 -18.2371 -18.2282 -18.2270 -18.2173
   -18.2057 -18.2013 -18.1997 -18.1996 -18.1915 -18.1871 -18.1868 -18.1864
   -18.1853 -18.1843 -18.1840 -18.1756 -18.1744 -18.1741 -18.1711 -18.1693
   -18.1676 -18.1657 -18.1554 -18.1451 -18.1415 -18.1170 -18.1148 -18.1114
    -9.3874  -9.3542  -9.3062  -9.2595  -9.2243  -9.1558  -9.1040  -9.0533
    -9.0022  -8.9733  -8.9108  -8.8955  -8.8765  -8.8693  -8.8495  -8.8215
    -8.7714  -8.7464  -8.7174  -8.6986  -8.6843  -8.6297  -8.5714  -8.5483
    -5.2408  -5.2108  -5.2003  -5.1955  -5.1888  -5.1854  -5.1783  -5.1759
    -5.1708  -5.1642  -5.1608  -5.1533  -5.0543  -5.0404  -5.0308  -5.0222
    -5.0165  -5.0080  -4.9989  -4.9863  -4.9705  -4.9232  -4.9122  -4.8981
    -4.1681  -3.9785  -3.9232  -3.7404  -3.6436  -3.4373  -3.4159  -3.1907
    -0.6690  -0.5967  -0.5645  -0.4797  -0.3324  -0.2473  -0.1633  -0.1333
    -0.0368   0.0293   0.0525   0.1486   0.2656   0.3888   0.4097   0.4796
     0.5171   0.5534   0.5823   0.5960   0.6177   0.6731   0.7007   0.7462
     0.7915   0.8643   0.8837   0.9533   0.9696   1.0219   1.0405   1.0862
     1.1197   1.1398   1.1972   1.2249   1.2288   1.2353   1.2972   1.3173
     1.3763   1.3944   1.4814   1.5085   1.5371   1.5582   1.5811   1.6035
     1.6200   1.6559   1.6762   1.6840   1.7174   1.7433   1.7751   1.8040
     1.8281   1.8619   1.8816   1.9106   1.9202   1.9605   1.9818   2.0240
     2.0623   2.0991   2.1491   2.2296   2.2711   2.4023   2.4893   2.5827

          k = 0.1250-0.3750-0.3750 (132616 PWs)   bands (ev):

   -18.4291 -18.4257 -18.4195 -18.4175 -18.4111 -18.4092 -18.4024 -18.4013
   -18.3810 -18.3247 -18.3190 -18.3162 -18.3039 -18.2987 -18.2903 -18.2794
   -18.2725 -18.2690 -18.2629 -18.2524 -18.2371 -18.2282 -18.2270 -18.2173
   -18.2057 -18.2013 -18.1997 -18.1996 -18.1915 -18.1871 -18.1868 -18.1864
   -18.1853 -18.1843 -18.1840 -18.1756 -18.1744 -18.1741 -18.1711 -18.1693
   -18.1676 -18.1657 -18.1554 -18.1451 -18.1415 -18.1170 -18.1148 -18.1114
    -9.3817  -9.3638  -9.3018  -9.2612  -9.2209  -9.1607  -9.1013  -9.0540
    -8.9981  -8.9759  -8.9130  -8.8927  -8.8740  -8.8710  -8.8582  -8.8141
    -8.7682  -8.7500  -8.7223  -8.6948  -8.6842  -8.6296  -8.5713  -8.5484
    -5.2408  -5.2108  -5.2005  -5.1955  -5.1887  -5.1854  -5.1776  -5.1765
    -5.1706  -5.1643  -5.1610  -5.1533  -5.0544  -5.0404  -5.0308  -5.0223
    -5.0164  -5.0080  -4.9989  -4.9862  -4.9706  -4.9233  -4.9121  -4.8981
    -4.1630  -4.0097  -3.8922  -3.7408  -3.6394  -3.4886  -3.3638  -3.2007
    -0.6681  -0.5897  -0.5575  -0.4943  -0.2846  -0.2607  -0.1996  -0.1556
    -0.0651   0.0356   0.0761   0.1725   0.3099   0.3637   0.4121   0.4536
     0.5050   0.5360   0.5661   0.6083   0.6442   0.6743   0.7204   0.7351
     0.8170   0.8355   0.8913   0.9446   0.9589   1.0273   1.0575   1.0898
     1.1302   1.1369   1.1757   1.2181   1.2380   1.2641   1.2937   1.3033
     1.3611   1.3954   1.4807   1.4997   1.5322   1.5597   1.5825   1.6097
     1.6338   1.6594   1.6778   1.6999   1.7178   1.7308   1.7763   1.8061
     1.8246   1.8433   1.8680   1.9036   1.9450   1.9647   1.9886   2.0167
     2.0704   2.0929   2.1595   2.2204   2.2732   2.3673   2.5039   2.5942

          k = 0.3750 0.1250-0.3750 (132616 PWs)   bands (ev):

   -18.4291 -18.4257 -18.4195 -18.4175 -18.4111 -18.4092 -18.4024 -18.4013
   -18.3810 -18.3247 -18.3190 -18.3162 -18.3039 -18.2987 -18.2903 -18.2794
   -18.2725 -18.2690 -18.2629 -18.2524 -18.2371 -18.2282 -18.2270 -18.2173
   -18.2057 -18.2013 -18.1997 -18.1997 -18.1915 -18.1873 -18.1869 -18.1863
   -18.1853 -18.1843 -18.1840 -18.1756 -18.1744 -18.1741 -18.1711 -18.1693
   -18.1676 -18.1657 -18.1554 -18.1451 -18.1415 -18.1170 -18.1148 -18.1114
    -9.3863  -9.3565  -9.3071  -9.2532  -9.2160  -9.1755  -9.1180  -9.0271
    -8.9970  -8.9714  -8.9183  -8.8880  -8.8800  -8.8708  -8.8429  -8.8279
    -8.7964  -8.7410  -8.7143  -8.6891  -8.6851  -8.6266  -8.5748  -8.5476
    -5.2408  -5.2109  -5.2006  -5.1950  -5.1888  -5.1869  -5.1786  -5.1743
    -5.1724  -5.1631  -5.1611  -5.1541  -5.0544  -5.0404  -5.0307  -5.0213
    -5.0151  -5.0084  -4.9982  -4.9880  -4.9698  -4.9238  -4.9119  -4.8982
    -4.1658  -3.9854  -3.9186  -3.7316  -3.6514  -3.4660  -3.3970  -3.1775
    -0.6349  -0.5982  -0.5705  -0.5008  -0.3553  -0.2735  -0.1780  -0.1317
    -0.0724   0.0374   0.1032   0.1313   0.3508   0.3848   0.4305   0.4916
     0.5101   0.5407   0.5609   0.5905   0.6182   0.6505   0.6684   0.7281
     0.7899   0.8510   0.9136   0.9801   0.9936   1.0126   1.0652   1.0890
     1.1047   1.1425   1.1854   1.2233   1.2503   1.2857   1.2976   1.3326
     1.3756   1.4147   1.4423   1.4613   1.4910   1.5239   1.5561   1.5830
     1.6305   1.6430   1.6793   1.7064   1.7301   1.7465   1.7649   1.7817
     1.8142   1.8352   1.8846   1.9196   1.9592   1.9865   2.0087   2.0345
     2.0551   2.0903   2.1330   2.2448   2.3168   2.4215   2.5097   2.5857

          k =-0.3750-0.1250-0.3750 (132616 PWs)   bands (ev):

   -18.4291 -18.4257 -18.4195 -18.4175 -18.4111 -18.4092 -18.4024 -18.4013
   -18.3810 -18.3247 -18.3190 -18.3162 -18.3039 -18.2987 -18.2903 -18.2794
   -18.2725 -18.2690 -18.2629 -18.2524 -18.2371 -18.2282 -18.2270 -18.2173
   -18.2057 -18.2013 -18.1997 -18.1997 -18.1915 -18.1873 -18.1869 -18.1863
   -18.1853 -18.1843 -18.1840 -18.1756 -18.1744 -18.1741 -18.1711 -18.1693
   -18.1676 -18.1657 -18.1554 -18.1451 -18.1415 -18.1170 -18.1148 -18.1114
    -9.3839  -9.3582  -9.3099  -9.2556  -9.2025  -9.1857  -9.1178  -9.0242
    -8.9962  -8.9693  -8.9200  -8.8966  -8.8834  -8.8692  -8.8427  -8.8188
    -8.7937  -8.7484  -8.7127  -8.6909  -8.6812  -8.6278  -8.5747  -8.5475
    -5.2408  -5.2109  -5.2006  -5.1949  -5.1889  -5.1869  -5.1782  -5.1745
    -5.1724  -5.1633  -5.1610  -5.1541  -5.0543  -5.0404  -5.0306  -5.0214
    -5.0152  -5.0084  -4.9982  -4.9878  -4.9698  -4.9238  -4.9119  -4.8981
    -4.1593  -4.0065  -3.9049  -3.7361  -3.6413  -3.4809  -3.3849  -3.1791
    -0.6350  -0.5968  -0.5731  -0.5013  -0.3782  -0.2761  -0.2097  -0.1207
     0.0116   0.0428   0.1063   0.1507   0.3088   0.3480   0.4584   0.4761
     0.4917   0.5286   0.5770   0.5946   0.6050   0.6490   0.6865   0.7388
     0.7734   0.8795   0.8910   0.9491   0.9972   1.0241   1.0830   1.1061
     1.1189   1.1548   1.1891   1.2157   1.2319   1.2665   1.2900   1.3521
     1.3793   1.4081   1.4353   1.4564   1.5003   1.5220   1.5676   1.5737
     1.6158   1.6533   1.6649   1.6976   1.7213   1.7418   1.7695   1.7898
     1.8353   1.8593   1.8718   1.9271   1.9603   1.9754   2.0089   2.0279
     2.0511   2.0938   2.1458   2.2220   2.3133   2.4471   2.4832   2.6070

          k = 0.3750-0.1250 0.3750 (132616 PWs)   bands (ev):

   -18.4291 -18.4257 -18.4195 -18.4175 -18.4111 -18.4092 -18.4024 -18.4013
   -18.3810 -18.3247 -18.3190 -18.3162 -18.3039 -18.2987 -18.2903 -18.2794
   -18.2725 -18.2690 -18.2629 -18.2524 -18.2371 -18.2282 -18.2270 -18.2173
   -18.2057 -18.2013 -18.1997 -18.1997 -18.1915 -18.1873 -18.1869 -18.1863
   -18.1853 -18.1843 -18.1840 -18.1756 -18.1744 -18.1741 -18.1711 -18.1693
   -18.1676 -18.1657 -18.1554 -18.1451 -18.1415 -18.1170 -18.1148 -18.1114
    -9.3849  -9.3571  -9.3099  -9.2561  -9.2045  -9.1796  -9.1208  -9.0275
    -8.9992  -8.9684  -8.9165  -8.8892  -8.8810  -8.8680  -8.8476  -8.8260
    -8.7952  -8.7450  -8.7101  -8.6910  -8.6827  -8.6285  -8.5745  -8.5475
    -5.2409  -5.2109  -5.1999  -5.1957  -5.1886  -5.1867  -5.1787  -5.1742
    -5.1725  -5.1633  -5.1611  -5.1541  -5.0542  -5.0405  -5.0307  -5.0216
    -5.0150  -5.0084  -4.9981  -4.9879  -4.9699  -4.9238  -4.9120  -4.8981
    -4.1606  -4.0067  -3.9022  -3.7345  -3.6430  -3.4812  -3.3860  -3.1792
    -0.6378  -0.5772  -0.5646  -0.5132  -0.3880  -0.2745  -0.2153  -0.1235
     0.0044   0.0439   0.1050   0.1515   0.3152   0.3511   0.4569   0.4710
     0.4984   0.5365   0.5507   0.5996   0.6172   0.6513   0.6938   0.7427
     0.7774   0.8633   0.9017   0.9437   0.9791   1.0149   1.0644   1.1053
     1.1192   1.1628   1.1900   1.2260   1.2558   1.2765   1.2986   1.3491
     1.3692   1.3986   1.4420   1.4676   1.5012   1.5124   1.5780   1.5905
     1.6162   1.6601   1.6717   1.6784   1.7047   1.7343   1.7691   1.7955
     1.8319   1.8556   1.8856   1.9329   1.9504   1.9682   2.0073   2.0242
     2.0356   2.0867   2.1483   2.2485   2.3185   2.4350   2.4932   2.5953

          k =-0.3750 0.1250 0.3750 (132616 PWs)   bands (ev):

   -18.4291 -18.4257 -18.4195 -18.4175 -18.4111 -18.4092 -18.4024 -18.4013
   -18.3810 -18.3247 -18.3190 -18.3162 -18.3039 -18.2987 -18.2903 -18.2794
   -18.2725 -18.2690 -18.2629 -18.2524 -18.2371 -18.2282 -18.2270 -18.2173
   -18.2057 -18.2013 -18.1997 -18.1997 -18.1915 -18.1873 -18.1869 -18.1863
   -18.1853 -18.1843 -18.1840 -18.1756 -18.1744 -18.1741 -18.1711 -18.1693
   -18.1676 -18.1657 -18.1554 -18.1451 -18.1415 -18.1170 -18.1148 -18.1114
    -9.3829  -9.3606  -9.3065  -9.2561  -9.2134  -9.1760  -9.1148  -9.0305
    -8.9937  -8.9727  -8.9164  -8.8936  -8.8807  -8.8653  -8.8448  -8.8326
    -8.7913  -8.7423  -8.7120  -8.6894  -8.6854  -8.6278  -8.5746  -8.5475
    -5.2409  -5.2108  -5.2001  -5.1957  -5.1886  -5.1866  -5.1783  -5.1744
    -5.1723  -5.1635  -5.1612  -5.1541  -5.0544  -5.0405  -5.0307  -5.0216
    -5.0149  -5.0084  -4.9981  -4.9878  -4.9699  -4.9239  -4.9119  -4.8981
    -4.1640  -3.9875  -3.9222  -3.7354  -3.6426  -3.4636  -3.3967  -3.1817
    -0.6306  -0.5877  -0.5754  -0.5100  -0.3464  -0.2705  -0.1832  -0.1539
    -0.0686   0.0483   0.1105   0.1252   0.3307   0.3825   0.4536   0.4777
     0.5058   0.5446   0.5618   0.5976   0.6179   0.6541   0.6746   0.7271
     0.7813   0.8570   0.9158   0.9583   1.0018   1.0258   1.0591   1.0896
     1.1200   1.1607   1.1875   1.2213   1.2401   1.2709   1.2896   1.3458
     1.3721   1.4035   1.4343   1.4643   1.4874   1.5161   1.5804   1.5972
     1.6373   1.6534   1.6659   1.7029   1.7221   1.7375   1.7564   1.7880
     1.8095   1.8545   1.8929   1.9186   1.9458   1.9872   2.0039   2.0321
     2.0521   2.0810   2.1400   2.2204   2.3187   2.4418   2.4912   2.6126

          k = 0.3750-0.3750 0.1250 (132616 PWs)   bands (ev):

   -18.4291 -18.4257 -18.4195 -18.4175 -18.4111 -18.4092 -18.4024 -18.4013
   -18.3810 -18.3247 -18.3190 -18.3162 -18.3039 -18.2987 -18.2903 -18.2794
   -18.2725 -18.2690 -18.2629 -18.2524 -18.2371 -18.2282 -18.2270 -18.2173
   -18.2057 -18.2013 -18.1997 -18.1997 -18.1915 -18.1871 -18.1868 -18.1864
   -18.1853 -18.1843 -18.1840 -18.1756 -18.1744 -18.1741 -18.1711 -18.1693
   -18.1676 -18.1657 -18.1554 -18.1451 -18.1415 -18.1170 -18.1148 -18.1114
    -9.3875  -9.3549  -9.3118  -9.2464  -9.2077  -9.1897  -9.0951  -9.0516
    -9.0114  -8.9724  -8.9193  -8.8780  -8.8704  -8.8597  -8.8392  -8.8274
    -8.7852  -8.7558  -8.7186  -8.6952  -8.6889  -8.6312  -8.5706  -8.5430
    -5.2407  -5.2108  -5.2001  -5.1953  -5.1888  -5.1859  -5.1780  -5.1749
    -5.1720  -5.1646  -5.1607  -5.1541  -5.0541  -5.0403  -5.0309  -5.0212
    -5.0154  -5.0080  -4.9979  -4.9886  -4.9697  -4.9239  -4.9121  -4.8983
    -4.1554  -3.9929  -3.8939  -3.7369  -3.6599  -3.4626  -3.4111  -3.2046
    -0.6750  -0.6180  -0.5225  -0.4012  -0.2706  -0.2501  -0.1633  -0.0908
    -0.0632  -0.0133   0.0604   0.0991   0.3039   0.3752   0.4167   0.4759
     0.5120   0.5236   0.5618   0.6052   0.6291   0.6410   0.6684   0.7324
     0.7836   0.8413   0.8981   0.9318   0.9632   1.0008   1.0445   1.0959
     1.1113   1.2014   1.2148   1.2415   1.2795   1.3097   1.3170   1.3639
     1.3806   1.4115   1.4189   1.4768   1.4979   1.5182   1.5482   1.5622
     1.6172   1.6329   1.6521   1.6877   1.7167   1.7493   1.7638   1.7887
     1.8399   1.8580   1.8915   1.9091   1.9248   1.9483   1.9714   2.0011
     2.0561   2.1422   2.1582   2.2060   2.2608   2.4007   2.4771   2.6397

          k =-0.3750-0.3750-0.1250 (132616 PWs)   bands (ev):

   -18.4291 -18.4257 -18.4195 -18.4175 -18.4111 -18.4092 -18.4024 -18.4013
   -18.3810 -18.3247 -18.3190 -18.3162 -18.3039 -18.2987 -18.2903 -18.2794
   -18.2725 -18.2690 -18.2629 -18.2524 -18.2371 -18.2282 -18.2270 -18.2173
   -18.2057 -18.2013 -18.1997 -18.1996 -18.1915 -18.1871 -18.1868 -18.1865
   -18.1853 -18.1843 -18.1840 -18.1756 -18.1744 -18.1741 -18.1711 -18.1693
   -18.1676 -18.1657 -18.1554 -18.1451 -18.1415 -18.1170 -18.1148 -18.1114
    -9.3898  -9.3439  -9.3236  -9.2413  -9.2099  -9.1904  -9.0978  -9.0452
    -9.0093  -8.9725  -8.9235  -8.8842  -8.8699  -8.8621  -8.8340  -8.8261
    -8.7814  -8.7552  -8.7226  -8.6986  -8.6851  -8.6306  -8.5709  -8.5429
    -5.2405  -5.2109  -5.2008  -5.1945  -5.1890  -5.1860  -5.1772  -5.1756
    -5.1718  -5.1647  -5.1607  -5.1541  -5.0542  -5.0403  -5.0308  -5.0210
    -5.0157  -5.0081  -4.9980  -4.9885  -4.9696  -4.9240  -4.9120  -4.8982
    -4.1578  -3.9599  -3.9350  -3.7309  -3.6527  -3.4653  -3.4115  -3.2040
    -0.6766  -0.6154  -0.5236  -0.4284  -0.2897  -0.2096  -0.1398  -0.1004
    -0.0499  -0.0162   0.0206   0.1442   0.2990   0.3664   0.4110   0.4837
     0.5018   0.5266   0.5590   0.5897   0.6196   0.6574   0.6844   0.7046
     0.7912   0.8695   0.9021   0.9272   0.9460   1.0122   1.0436   1.0770
     1.1414   1.1825   1.2227   1.2290   1.2751   1.2984   1.3327   1.3482
     1.3759   1.4152   1.4350   1.4671   1.4875   1.5203   1.5414   1.5643
     1.6092   1.6453   1.6772   1.6990   1.7204   1.7387   1.7828   1.7943
     1.8084   1.8437   1.8641   1.9207   1.9297   1.9652   1.9854   2.0157
     2.0542   2.1148   2.1500   2.2060   2.2770   2.3843   2.4929   2.6426

          k = 0.3750 0.3750-0.1250 (132616 PWs)   bands (ev):

   -18.4291 -18.4257 -18.4195 -18.4175 -18.4111 -18.4092 -18.4024 -18.4013
   -18.3810 -18.3247 -18.3190 -18.3162 -18.3039 -18.2987 -18.2903 -18.2794
   -18.2725 -18.2690 -18.2629 -18.2524 -18.2371 -18.2282 -18.2270 -18.2173
   -18.2057 -18.2013 -18.1997 -18.1997 -18.1915 -18.1871 -18.1868 -18.1864
   -18.1853 -18.1843 -18.1840 -18.1756 -18.1744 -18.1741 -18.1711 -18.1693
   -18.1676 -18.1657 -18.1554 -18.1451 -18.1415 -18.1170 -18.1148 -18.1114
    -9.3912  -9.3419  -9.3240  -9.2395  -9.2124  -9.1879  -9.1012  -9.0471
    -9.0068  -8.9764  -8.9185  -8.8798  -8.8674  -8.8598  -8.8432  -8.8274
    -8.7840  -8.7516  -8.7222  -8.6980  -8.6871  -8.6296  -8.5709  -8.5431
    -5.2405  -5.2109  -5.2007  -5.1946  -5.1890  -5.1861  -5.1779  -5.1750
    -5.1719  -5.1644  -5.1607  -5.1540  -5.0542  -5.0403  -5.0309  -5.0209
    -5.0155  -5.0080  -4.9980  -4.9886  -4.9696  -4.9239  -4.9120  -4.8983
    -4.1608  -3.9593  -3.9296  -3.7282  -3.6568  -3.4648  -3.4159  -3.2021
    -0.6677  -0.6171  -0.5268  -0.4131  -0.2908  -0.2202  -0.1451  -0.1101
    -0.0630  -0.0031   0.0174   0.1322   0.3201   0.3619   0.4319   0.4797
     0.4951   0.5161   0.5628   0.5975   0.6136   0.6452   0.6878   0.7234
     0.7746   0.8691   0.9089   0.9267   0.9533   0.9965   1.0311   1.1004
     1.1287   1.1801   1.2363   1.2596   1.2731   1.2966   1.3143   1.3522
     1.3689   1.4055   1.4246   1.4767   1.5045   1.5138   1.5509   1.5779
     1.6158   1.6439   1.6528   1.6845   1.7257   1.7374   1.7680   1.7961
     1.8172   1.8342   1.8802   1.9144   1.9300   1.9591   1.9908   2.0070
     2.0811   2.1186   2.1622   2.2072   2.2528   2.3824   2.4934   2.6344

          k =-0.3750 0.3750 0.1250 (132616 PWs)   bands (ev):

   -18.4291 -18.4257 -18.4195 -18.4175 -18.4111 -18.4092 -18.4024 -18.4013
   -18.3810 -18.3247 -18.3190 -18.3162 -18.3039 -18.2987 -18.2903 -18.2794
   -18.2725 -18.2690 -18.2629 -18.2524 -18.2371 -18.2282 -18.2270 -18.2173
   -18.2057 -18.2013 -18.1997 -18.1997 -18.1915 -18.1871 -18.1868 -18.1865
   -18.1853 -18.1843 -18.1840 -18.1756 -18.1744 -18.1741 -18.1711 -18.1693
   -18.1676 -18.1657 -18.1554 -18.1451 -18.1415 -18.1170 -18.1148 -18.1114
    -9.3859  -9.3568  -9.3120  -9.2438  -9.2164  -9.1825  -9.0945  -9.0548
    -9.0074  -8.9713  -8.9218  -8.8763  -8.8740  -8.8594  -8.8434  -8.8245
    -8.7801  -8.7580  -8.7191  -8.6947  -8.6896  -8.6309  -8.5706  -8.5430
    -5.2407  -5.2107  -5.2002  -5.1954  -5.1887  -5.1858  -5.1773  -5.1757
    -5.1716  -5.1648  -5.1608  -5.1540  -5.0542  -5.0403  -5.0309  -5.0212
    -5.0153  -5.0081  -4.9979  -4.9885  -4.9697  -4.9240  -4.9120  -4.8982
    -4.1552  -3.9924  -3.8980  -3.7360  -3.6563  -3.4614  -3.4104  -3.2080
    -0.6717  -0.6075  -0.5228  -0.4100  -0.2916  -0.2413  -0.1591  -0.0933
    -0.0518  -0.0059   0.0363   0.0951   0.3010   0.3837   0.4261   0.4738
     0.5014   0.5265   0.5813   0.6084   0.6199   0.6434   0.6831   0.7093
     0.7945   0.8367   0.9001   0.9122   0.9852   0.9926   1.0569   1.0998
     1.1222   1.1915   1.2114   1.2434   1.2731   1.3082   1.3265   1.3511
     1.3737   1.3974   1.4230   1.4619   1.4883   1.5354   1.5424   1.5816
     1.6151   1.6318   1.6681   1.7055   1.7161   1.7357   1.7719   1.7940
     1.8196   1.8570   1.8836   1.8973   1.9317   1.9601   1.9802   2.0081
     2.0705   2.1133   2.1542   2.1908   2.2589   2.4039   2.4893   2.6426

          k =-0.3750-0.3750 0.3750 (132612 PWs)   bands (ev):

   -18.4291 -18.4257 -18.4195 -18.4175 -18.4111 -18.4092 -18.4024 -18.4013
   -18.3810 -18.3247 -18.3190 -18.3162 -18.3039 -18.2987 -18.2903 -18.2794
   -18.2725 -18.2690 -18.2629 -18.2524 -18.2371 -18.2282 -18.2270 -18.2173
   -18.2057 -18.2013 -18.1997 -18.1997 -18.1915 -18.1871 -18.1868 -18.1864
   -18.1853 -18.1843 -18.1841 -18.1756 -18.1744 -18.1741 -18.1711 -18.1693
   -18.1676 -18.1657 -18.1554 -18.1451 -18.1415 -18.1170 -18.1148 -18.1114
    -9.3737  -9.3450  -9.3077  -9.2573  -9.2291  -9.1896  -9.1183  -9.0631
    -8.9937  -8.9718  -8.9024  -8.8825  -8.8706  -8.8674  -8.8355  -8.8137
    -8.7815  -8.7472  -8.7195  -8.6957  -8.6887  -8.6317  -8.5756  -8.5494
    -5.2407  -5.2109  -5.2006  -5.1946  -5.1890  -5.1864  -5.1781  -5.1760
    -5.1711  -5.1637  -5.1610  -5.1542  -5.0541  -5.0402  -5.0309  -5.0211
    -5.0155  -5.0081  -4.9980  -4.9882  -4.9698  -4.9236  -4.9119  -4.8981
    -4.0480  -3.8662  -3.8324  -3.7890  -3.6434  -3.5951  -3.5648  -3.3655
    -0.4390  -0.3790  -0.3314  -0.2996  -0.2278  -0.1516  -0.1181  -0.0768
    -0.0262   0.0222   0.0891   0.2018   0.2930   0.3490   0.3800   0.4236
     0.4471   0.4774   0.5079   0.5424   0.5619   0.6169   0.6351   0.6577
     0.8138   0.8666   0.8941   0.9299   0.9534   0.9728   1.0269   1.0466
     1.0708   1.0963   1.1367   1.1720   1.1860   1.2220   1.2436   1.2708
     1.3344   1.3802   1.4641   1.4970   1.5082   1.5369   1.5754   1.5973
     1.6503   1.6709   1.7089   1.7307   1.7389   1.7740   1.7873   1.8041
     1.8350   1.8509   1.8716   1.8892   1.9326   1.9531   1.9668   2.0027
     2.0398   2.0727   2.0990   2.1316   2.2055   2.2307   2.2647   2.3728

          k =-0.3750 0.3750-0.3750 (132612 PWs)   bands (ev):

   -18.4291 -18.4257 -18.4195 -18.4175 -18.4111 -18.4092 -18.4024 -18.4013
   -18.3810 -18.3247 -18.3190 -18.3162 -18.3039 -18.2987 -18.2903 -18.2794
   -18.2725 -18.2690 -18.2629 -18.2524 -18.2371 -18.2282 -18.2270 -18.2173
   -18.2057 -18.2013 -18.1997 -18.1997 -18.1915 -18.1871 -18.1868 -18.1864
   -18.1853 -18.1843 -18.1840 -18.1756 -18.1744 -18.1741 -18.1711 -18.1693
   -18.1676 -18.1657 -18.1554 -18.1451 -18.1415 -18.1170 -18.1148 -18.1114
    -9.3715  -9.3478  -9.3068  -9.2619  -9.2231  -9.1917  -9.1164  -9.0636
    -8.9982  -8.9688  -8.9022  -8.8837  -8.8702  -8.8639  -8.8336  -8.8201
    -8.7818  -8.7464  -8.7162  -8.6956  -8.6889  -8.6336  -8.5754  -8.5492
    -5.2408  -5.2108  -5.2000  -5.1953  -5.1888  -5.1861  -5.1782  -5.1758
    -5.1712  -5.1639  -5.1610  -5.1542  -5.0540  -5.0403  -5.0309  -5.0213
    -5.0153  -5.0081  -4.9979  -4.9881  -4.9699  -4.9236  -4.9120  -4.8981
    -4.0413  -3.8997  -3.8105  -3.7761  -3.6641  -3.5963  -3.5457  -3.3707
    -0.4406  -0.3799  -0.3416  -0.2812  -0.2390  -0.1716  -0.1139  -0.0842
     0.0022   0.0509   0.1131   0.1929   0.2480   0.3188   0.3678   0.4343
     0.4647   0.4839   0.5167   0.5457   0.5714   0.6134   0.6241   0.6694
     0.8011   0.8530   0.9024   0.9138   0.9406   0.9944   1.0299   1.0380
     1.0762   1.1053   1.1363   1.1611   1.1914   1.2190   1.2613   1.2861
     1.3329   1.4025   1.4457   1.4744   1.5113   1.5382   1.5885   1.6080
     1.6464   1.6730   1.6889   1.7246   1.7370   1.7670   1.7816   1.8215
     1.8405   1.8542   1.8816   1.8969   1.9097   1.9363   1.9693   1.9961
     2.0342   2.0576   2.1198   2.1521   2.2032   2.2269   2.2551   2.3859

          k = 0.3750-0.3750-0.3750 (132612 PWs)   bands (ev):

   -18.4291 -18.4257 -18.4195 -18.4175 -18.4111 -18.4092 -18.4024 -18.4013
   -18.3810 -18.3247 -18.3190 -18.3162 -18.3039 -18.2987 -18.2903 -18.2794
   -18.2725 -18.2690 -18.2629 -18.2524 -18.2371 -18.2282 -18.2270 -18.2173
   -18.2057 -18.2013 -18.1997 -18.1997 -18.1915 -18.1871 -18.1868 -18.1864
   -18.1853 -18.1843 -18.1841 -18.1756 -18.1744 -18.1741 -18.1711 -18.1693
   -18.1676 -18.1657 -18.1554 -18.1451 -18.1415 -18.1170 -18.1148 -18.1114
    -9.3674  -9.3533  -9.3058  -9.2616  -9.2243  -9.1918  -9.1127  -9.0671
    -8.9943  -8.9699  -8.9039  -8.8825  -8.8715  -8.8659  -8.8355  -8.8189
    -8.7762  -8.7491  -8.7165  -8.6951  -8.6899  -8.6331  -8.5753  -8.5493
    -5.2408  -5.2108  -5.2002  -5.1954  -5.1887  -5.1860  -5.1775  -5.1765
    -5.1710  -5.1641  -5.1611  -5.1542  -5.0541  -5.0402  -5.0309  -5.0213
    -5.0152  -5.0081  -4.9979  -4.9880  -4.9699  -4.9237  -4.9119  -4.8981
    -4.0394  -3.9013  -3.8375  -3.7346  -3.6796  -3.6064  -3.5268  -3.3792
    -0.4296  -0.3950  -0.3145  -0.2677  -0.2289  -0.1974  -0.1109  -0.1036
    -0.0400   0.0493   0.1263   0.1812   0.2708   0.3292   0.3905   0.4277
     0.4424   0.4952   0.5061   0.5302   0.5828   0.6113   0.6399   0.6838
     0.7997   0.8602   0.8857   0.9014   0.9659   0.9849   1.0338   1.0464
     1.0833   1.1083   1.1287   1.1645   1.1897   1.2272   1.2491   1.2753
     1.3286   1.3832   1.4514   1.4705   1.4937   1.5377   1.6047   1.6287
     1.6499   1.6786   1.7047   1.7209   1.7303   1.7537   1.7890   1.8107
     1.8385   1.8540   1.8714   1.8893   1.9244   1.9437   1.9757   2.0072
     2.0343   2.0509   2.0917   2.1397   2.1915   2.2429   2.2704   2.3918

     highest occupied level (ev):     3.0929

!    total energy              =   -2256.26947908 Ry
     estimated scf accuracy    <          8.9E-11 Ry

     The total energy is the sum of the following terms:
     one-electron contribution =    -988.18051347 Ry
     hartree contribution      =     622.24739294 Ry
     xc contribution           =    -647.59573693 Ry
     ewald contribution        =   -1242.74062162 Ry

     convergence has been achieved in  15 iterations

     Forces acting on atoms (cartesian axes, Ry/au):

     atom    1 type  1   force =     0.00375269   -0.00414391    0.00486253
     atom    2 type  2   force =     0.00285795   -0.00760508    0.00170844
     atom    3 type  3   force =    -0.00911043    0.01173220    0.00149159
     atom    4 type  3   force =     0.00210071   -0.00138104   -0.01553681
     atom    5 type  3   force =     0.01277406   -0.01892725    0.00234068
     atom    6 type  1   force =     0.00126223   -0.00038740   -0.00106394
     atom    7 type  2   force =     0.00293809    0.00598920    0.00646235
     atom    8 type  3   force =    -0.00465669   -0.00169281   -0.00076013
     atom    9 type  3   force =     0.02171261    0.01682826    0.00645123
     atom   10 type  3   force =    -0.00117412    0.00101302    0.00079642
     atom   11 type  1   force =     0.00371155    0.00074441   -0.00033488
     atom   12 type  2   force =    -0.01220287    0.00977069   -0.00024292
     atom   13 type  3   force =    -0.03160882    0.00962097   -0.00565492
     atom   14 type  3   force =     0.00388198   -0.00766028    0.00049455
     atom   15 type  3   force =    -0.01473173   -0.00279677   -0.00993464
     atom   16 type  1   force =     0.01123638    0.01318909   -0.00003546
     atom   17 type  2   force =    -0.02234951   -0.00627441    0.00745666
     atom   18 type  3   force =     0.01827675   -0.00504449    0.00009012
     atom   19 type  3   force =    -0.01123845   -0.01101462    0.00461136
     atom   20 type  3   force =    -0.00323365    0.00052226    0.00585219
     atom   21 type  1   force =    -0.00614032    0.00759376    0.00053101
     atom   22 type  2   force =     0.00422661    0.00675470    0.00918044
     atom   23 type  3   force =     0.02319931   -0.00498877   -0.00491937
     atom   24 type  3   force =    -0.01070694   -0.01077931   -0.00236726
     atom   25 type  3   force =     0.00533640   -0.01635166    0.00111630
     atom   26 type  1   force =    -0.00285395   -0.00930131   -0.01096754
     atom   27 type  2   force =     0.00443310    0.00545238   -0.00906968
     atom   28 type  3   force =     0.00227901    0.00023797   -0.00457250
     atom   29 type  3   force =     0.00192643   -0.00433135    0.00581540
     atom   30 type  3   force =    -0.00191599    0.00124078    0.00196842
     atom   31 type  1   force =     0.00211034    0.00224069    0.00179311
     atom   32 type  2   force =     0.01709898    0.00755710    0.00496048
     atom   33 type  3   force =     0.00061234    0.02277508    0.01038285
     atom   34 type  3   force =    -0.00094247   -0.00300721    0.00250363
     atom   35 type  3   force =     0.00050020    0.00150360   -0.00266765
     atom   36 type  1   force =    -0.01707969   -0.01876900   -0.00062147
     atom   37 type  2   force =     0.01078772   -0.00363307   -0.01040176
     atom   38 type  3   force =    -0.00160709    0.00309224    0.00648137
     atom   39 type  3   force =    -0.00706610    0.00766173   -0.00785930
     atom   40 type  3   force =     0.00160339    0.00256959   -0.00034090

     Total force =     0.096648     Total SCF correction =     0.000041


     Computing stress (Cartesian axis) and pressure

          total   stress  (Ry/bohr**3)                   (kbar)     P=       -5.71
  -0.00002950   0.00000658  -0.00000002           -4.34        0.97       -0.00
   0.00000658  -0.00003358   0.00000112            0.97       -4.94        0.16
  -0.00000002   0.00000112  -0.00005341           -0.00        0.16       -7.86

 
     init_run     :     19.98s CPU     16.91s WALL (       1 calls)
     electrons    :    201.02s CPU    211.70s WALL (       1 calls)
     forces       :      8.72s CPU      3.92s WALL (       1 calls)
     stress       :     31.34s CPU     30.39s WALL (       1 calls)

     Called by init_run:
     wfcinit      :     12.06s CPU     13.86s WALL (       1 calls)
                                       13.86s GPU  (       1 calls)
     potinit      :      4.58s CPU      1.39s WALL (       1 calls)
     hinit0       :      2.77s CPU      0.99s WALL (       1 calls)

     Called by electrons:
     c_bands      :    121.14s CPU    169.85s WALL (      16 calls)
     sum_band     :     21.42s CPU     20.76s WALL (      16 calls)
                                       20.76s GPU  (      16 calls)
     v_of_rho     :     54.38s CPU     16.38s WALL (      16 calls)
     mix_rho      :      6.30s CPU      4.92s WALL (      16 calls)

     Called by c_bands:
     init_us_2    :      2.22s CPU      3.00s WALL (     280 calls)
                                        3.00s GPU  (     280 calls)
     cegterg      :     79.90s CPU    126.23s WALL (     128 calls)

     Called by *egterg:
     cdiaghg      :     13.76s CPU     25.22s WALL (     645 calls)
                                       25.19s GPU  (     645 calls)
     h_psi        :     54.18s CPU     73.40s WALL (     661 calls)
                                       72.96s GPU  (     661 calls)
     g_psi        :      0.00s CPU      0.35s WALL (     525 calls)
                                        0.35s GPU  (     525 calls)

     Called by h_psi:
     h_psi:calbec :      0.31s CPU      9.81s WALL (     661 calls)
                                        9.80s GPU  (     661 calls)
     vloc_psi     :     39.66s CPU     53.89s WALL (     661 calls)
                                       52.98s GPU  (     661 calls)
     add_vuspsi   :      0.33s CPU      9.63s WALL (     661 calls)
                                        9.62s GPU  (     661 calls)

     General routines
     calbec       :      0.31s CPU      0.39s WALL (     701 calls)
     fft          :     25.55s CPU      6.51s WALL (     185 calls)
                                        0.00s GPU  (       6 calls)
     ffts         :      2.63s CPU      0.67s WALL (      16 calls)
     fftw         :      0.60s CPU     62.51s WALL (   10406 calls)
                                       46.74s GPU  (   10406 calls)
 
     Parallel routines
 
     PWSCF        :   4m21.73s CPU   4m23.67s WALL

 
   This run was terminated on:  21:46:35  22Apr2021            

=------------------------------------------------------------------------------=
   JOB DONE.
=------------------------------------------------------------------------------=
