
     Program PWSCF v.6.7MaX starts on 22Apr2021 at 19: 6:42 

     This program is part of the open-source Quantum ESPRESSO suite
     for quantum simulation of materials; please cite
         "P. Giannozzi et al., J. Phys.:Condens. Matter 21 395502 (2009);
         "P. Giannozzi et al., J. Phys.:Condens. Matter 29 465901 (2017);
         "P. Giannozzi et al., J. Chem. Phys. 152 154105 (2020);
          URL http://www.quantum-espresso.org", 
     in publications or presentations arising from this work. More details at
     http://www.quantum-espresso.org/quote

     Parallel version (MPI & OpenMP), running on      16 processor cores
     Number of MPI processes:                 4
     Threads/MPI process:                     4

     MPI processes distributed on     1 nodes
     K-points division:     npool     =       4
     Reading input from ESP_40.pwi
Warning: card &CELL ignored
Warning: card / ignored

     Current dimensions of program PWSCF are:
     Max number of different atomic species (ntypx) = 10
     Max number of k-points (npk) =  40000
     Max angular momentum in pseudopotentials (lmaxx) =  3
     Message from routine read_pp_mesh:
     mesh size missing, using the one in header
     Message from routine read_pp_mesh:
     mesh size missing, using the one in header
     Message from routine read_pp_mesh:
     mesh size missing, using the one in header

     Subspace diagonalization in iterative solution of the eigenvalue problem:
     a serial algorithm will be used

 
     G-vector sticks info
     --------------------
     sticks:   dense  smooth     PW     G-vecs:    dense   smooth      PW
     Sum       12589   12589   3289              1061107  1061107  140905
 
     Using Slab Decomposition
 


     bravais-lattice index     =            0
     lattice parameter (alat)  =      23.7585  a.u.
     unit-cell volume          =   13410.8736 (a.u.)^3
     number of atoms/cell      =           40
     number of atomic types    =            3
     number of electrons       =       352.00
     number of Kohn-Sham states=          176
     kinetic-energy cutoff     =      70.0000  Ry
     charge density cutoff     =     280.0000  Ry
     scf convergence threshold =      1.0E-10
     mixing beta               =       0.7000
     number of iterations used =            8  plain     mixing
     Exchange-correlation= PBESOL
                           (   1   4  10   8   0   0   0)

     GPU acceleration is ACTIVE.


     celldm(1)=  23.758500  celldm(2)=   0.000000  celldm(3)=   0.000000
     celldm(4)=   0.000000  celldm(5)=   0.000000  celldm(6)=   0.000000

     crystal axes: (cart. coord. in units of alat)
               a(1) = (   1.000000   0.000000   0.000000 )  
               a(2) = (   0.000000   1.000000   0.000000 )  
               a(3) = (   0.000000   0.000000   1.000000 )  

     reciprocal axes: (cart. coord. in units 2 pi/alat)
               b(1) = (  1.000000  0.000000  0.000000 )  
               b(2) = (  0.000000  1.000000  0.000000 )  
               b(3) = (  0.000000  0.000000  1.000000 )  


     PseudoPot. # 1 for Cs read from file:
     /m100/home/userexternal/lmonacel/espresso/pseudo/Cs-nc-pbesol.upf
     MD5 check sum: 9d2f2206a14dc5b3b3f3fbfae186bed4
     Pseudo is Norm-conserving + core correction, Zval =  9.0
     Generated using ONCVPSP code by D. R. Hamann
     Using radial grid of 2384 points,  8 beta functions with: 
                l(1) =   0
                l(2) =   0
                l(3) =   1
                l(4) =   1
                l(5) =   2
                l(6) =   2
                l(7) =   3
                l(8) =   3

     PseudoPot. # 2 for Sn read from file:
     /m100/home/userexternal/lmonacel/espresso/pseudo/Sn-nc-pbesol.upf
     MD5 check sum: c2995d571af40102bfea7461443d92cf
     Pseudo is Norm-conserving + core correction, Zval = 14.0
     Generated using ONCVPSP code by D. R. Hamann
     Using radial grid of 1628 points,  6 beta functions with: 
                l(1) =   0
                l(2) =   0
                l(3) =   1
                l(4) =   1
                l(5) =   2
                l(6) =   2

     PseudoPot. # 3 for I  read from file:
     /m100/home/userexternal/lmonacel/espresso/pseudo/I-nc-pbesol.upf
     MD5 check sum: 80ed5ceb2eb9c553cfb6760a299d9c5b
     Pseudo is Norm-conserving + core correction, Zval =  7.0
     Generated using ONCVPSP code by D. R. Hamann
     Using radial grid of 1182 points,  6 beta functions with: 
                l(1) =   0
                l(2) =   0
                l(3) =   1
                l(4) =   1
                l(5) =   2
                l(6) =   2

     atomic species   valence    mass     pseudopotential
        Cs             9.00   132.90545     Cs( 1.00)
        Sn            14.00   118.71000     Sn( 1.00)
        I              7.00   126.90447     I ( 1.00)

     No symmetry found



   Cartesian axes

     site n.     atom                  positions (alat units)
         1           Cs  tau(   1) = (   0.2273046   0.2438926   0.2494386  )
         2           Sn  tau(   2) = (  -0.0178337  -0.0068198  -0.0102184  )
         3           I   tau(   3) = (   0.2428696  -0.0073785   0.0275297  )
         4           I   tau(   4) = (  -0.0082023  -0.0040175   0.2476964  )
         5           I   tau(   5) = (   0.0046122   0.2502765   0.0374915  )
         6           Cs  tau(   6) = (   0.2636301   0.2660758   0.7048586  )
         7           Sn  tau(   7) = (   0.0089193  -0.0061338   0.4841581  )
         8           I   tau(   8) = (   0.2510089  -0.0555029   0.4779078  )
         9           I   tau(   9) = (  -0.0055237   0.0397538   0.7532109  )
        10           I   tau(  10) = (   0.0088241   0.2503810   0.5066802  )
        11           Cs  tau(  11) = (   0.2468370   0.7465178   0.2661201  )
        12           Sn  tau(  12) = (   0.0019600   0.5054154   0.0031128  )
        13           I   tau(  13) = (   0.2541585   0.5172997  -0.0011546  )
        14           I   tau(  14) = (  -0.0643304   0.5373826   0.2524889  )
        15           I   tau(  15) = (   0.0158902   0.7397205  -0.0345810  )
        16           Cs  tau(  16) = (   0.2543025   0.7088055   0.7386314  )
        17           Sn  tau(  17) = (   0.0049362   0.4945613   0.4925179  )
        18           I   tau(  18) = (   0.2708821   0.4999663   0.4921970  )
        19           I   tau(  19) = (   0.0043976   0.4689838   0.7395154  )
        20           I   tau(  20) = (   0.0114089   0.7539559   0.5581094  )
        21           Cs  tau(  21) = (   0.7651146   0.2345387   0.2000770  )
        22           Sn  tau(  22) = (   0.4767776   0.0021820   0.0051273  )
        23           I   tau(  23) = (   0.7395133   0.0058028   0.0135447  )
        24           I   tau(  24) = (   0.5024517  -0.0228369   0.2577950  )
        25           I   tau(  25) = (   0.4946053   0.2622202  -0.0053919  )
        26           Cs  tau(  26) = (   0.7601811   0.2493675   0.7240000  )
        27           Sn  tau(  27) = (   0.4966021  -0.0080176   0.5120756  )
        28           I   tau(  28) = (   0.7470046  -0.0066096   0.5085849  )
        29           I   tau(  29) = (   0.5181605   0.0302830   0.7525829  )
        30           I   tau(  30) = (   0.4875327   0.2417243   0.4675723  )
        31           Cs  tau(  31) = (   0.7544277   0.7348914   0.2586749  )
        32           Sn  tau(  32) = (   0.5092572   0.5135614   0.0016088  )
        33           I   tau(  33) = (   0.7599073   0.5224427   0.0135418  )
        34           I   tau(  34) = (   0.4788959   0.5265176   0.2523055  )
        35           I   tau(  35) = (   0.5049412   0.7371962  -0.0029608  )
        36           Cs  tau(  36) = (   0.7529285   0.7494534   0.7516241  )
        37           Sn  tau(  37) = (   0.5102166   0.5087477   0.4951083  )
        38           I   tau(  38) = (   0.7602327   0.5043022   0.5171618  )
        39           I   tau(  39) = (   0.4812821   0.5284656   0.7553439  )
        40           I   tau(  40) = (   0.5221548   0.7459993   0.5398868  )

     number of k points=    32
                       cart. coord. in units 2pi/alat
        k(    1) = (   0.1250000   0.1250000   0.1250000), wk =   0.0625000
        k(    2) = (   0.1250000   0.1250000   0.3750000), wk =   0.0625000
        k(    3) = (   0.1250000   0.3750000   0.3750000), wk =   0.0625000
        k(    4) = (   0.3750000   0.3750000   0.3750000), wk =   0.0625000
        k(    5) = (  -0.1250000  -0.1250000   0.1250000), wk =   0.0625000
        k(    6) = (  -0.1250000   0.1250000  -0.1250000), wk =   0.0625000
        k(    7) = (   0.1250000  -0.1250000  -0.1250000), wk =   0.0625000
        k(    8) = (  -0.1250000  -0.1250000   0.3750000), wk =   0.0625000
        k(    9) = (  -0.1250000   0.1250000  -0.3750000), wk =   0.0625000
        k(   10) = (   0.1250000  -0.1250000  -0.3750000), wk =   0.0625000
        k(   11) = (   0.3750000  -0.1250000   0.1250000), wk =   0.0625000
        k(   12) = (  -0.3750000  -0.1250000  -0.1250000), wk =   0.0625000
        k(   13) = (   0.3750000   0.1250000  -0.1250000), wk =   0.0625000
        k(   14) = (  -0.3750000   0.1250000   0.1250000), wk =   0.0625000
        k(   15) = (  -0.1250000   0.3750000   0.1250000), wk =   0.0625000
        k(   16) = (  -0.1250000  -0.3750000  -0.1250000), wk =   0.0625000
        k(   17) = (   0.1250000   0.3750000  -0.1250000), wk =   0.0625000
        k(   18) = (   0.1250000  -0.3750000   0.1250000), wk =   0.0625000
        k(   19) = (  -0.1250000  -0.3750000   0.3750000), wk =   0.0625000
        k(   20) = (  -0.1250000   0.3750000  -0.3750000), wk =   0.0625000
        k(   21) = (   0.1250000  -0.3750000  -0.3750000), wk =   0.0625000
        k(   22) = (   0.3750000   0.1250000  -0.3750000), wk =   0.0625000
        k(   23) = (  -0.3750000  -0.1250000  -0.3750000), wk =   0.0625000
        k(   24) = (   0.3750000  -0.1250000   0.3750000), wk =   0.0625000
        k(   25) = (  -0.3750000   0.1250000   0.3750000), wk =   0.0625000
        k(   26) = (   0.3750000  -0.3750000   0.1250000), wk =   0.0625000
        k(   27) = (  -0.3750000  -0.3750000  -0.1250000), wk =   0.0625000
        k(   28) = (   0.3750000   0.3750000  -0.1250000), wk =   0.0625000
        k(   29) = (  -0.3750000   0.3750000   0.1250000), wk =   0.0625000
        k(   30) = (  -0.3750000  -0.3750000   0.3750000), wk =   0.0625000
        k(   31) = (  -0.3750000   0.3750000  -0.3750000), wk =   0.0625000
        k(   32) = (   0.3750000  -0.3750000  -0.3750000), wk =   0.0625000

     Dense  grid:  1061107 G-vectors     FFT dimensions: ( 128, 128, 128)

     Estimated max dynamical RAM per process >       6.82 GB

     Estimated total dynamical RAM >      27.27 GB

     Initial potential from superposition of free atoms

     starting charge  351.69472, renormalised to  352.00000
     Starting wfcs are  208 randomized atomic wfcs

     total cpu time spent up to now is       17.9 secs

     Self-consistent Calculation

     iteration #  1     ecut=    70.00 Ry     beta= 0.70
     Davidson diagonalization with overlap
     ethr =  1.00E-02,  avg # of iterations =  2.0

     Threshold (ethr) on eigenvalues was too large:
     Diagonalizing with lowered threshold

     Davidson diagonalization with overlap
     ethr =  2.26E-04,  avg # of iterations =  4.0

     total cpu time spent up to now is       38.9 secs

     total energy              =   -2255.99032926 Ry
     estimated scf accuracy    <       0.69856947 Ry

     iteration #  2     ecut=    70.00 Ry     beta= 0.70
     Davidson diagonalization with overlap
     ethr =  1.98E-04,  avg # of iterations =  3.3

     total cpu time spent up to now is       51.9 secs

     total energy              =   -2256.21053789 Ry
     estimated scf accuracy    <       0.31553873 Ry

     iteration #  3     ecut=    70.00 Ry     beta= 0.70
     Davidson diagonalization with overlap
     ethr =  8.96E-05,  avg # of iterations =  2.5

     total cpu time spent up to now is       63.6 secs

     total energy              =   -2256.27022717 Ry
     estimated scf accuracy    <       0.01537313 Ry

     iteration #  4     ecut=    70.00 Ry     beta= 0.70
     Davidson diagonalization with overlap
     ethr =  4.37E-06,  avg # of iterations =  4.2

     total cpu time spent up to now is       77.8 secs

     total energy              =   -2256.27661212 Ry
     estimated scf accuracy    <       0.00594299 Ry

     iteration #  5     ecut=    70.00 Ry     beta= 0.70
     Davidson diagonalization with overlap
     ethr =  1.69E-06,  avg # of iterations =  3.9

     total cpu time spent up to now is       90.3 secs

     total energy              =   -2256.27771406 Ry
     estimated scf accuracy    <       0.00119621 Ry

     iteration #  6     ecut=    70.00 Ry     beta= 0.70
     Davidson diagonalization with overlap
     ethr =  3.40E-07,  avg # of iterations =  3.1

     total cpu time spent up to now is      102.5 secs

     total energy              =   -2256.27787978 Ry
     estimated scf accuracy    <       0.00020944 Ry

     iteration #  7     ecut=    70.00 Ry     beta= 0.70
     Davidson diagonalization with overlap
     ethr =  5.95E-08,  avg # of iterations =  4.0

     total cpu time spent up to now is      116.2 secs

     total energy              =   -2256.27795169 Ry
     estimated scf accuracy    <       0.00001457 Ry

     iteration #  8     ecut=    70.00 Ry     beta= 0.70
     Davidson diagonalization with overlap
     ethr =  4.14E-09,  avg # of iterations =  5.2

     total cpu time spent up to now is      130.9 secs

     total energy              =   -2256.27795918 Ry
     estimated scf accuracy    <       0.00000551 Ry

     iteration #  9     ecut=    70.00 Ry     beta= 0.70
     Davidson diagonalization with overlap
     ethr =  1.57E-09,  avg # of iterations =  4.0

     total cpu time spent up to now is      144.3 secs

     total energy              =   -2256.27796071 Ry
     estimated scf accuracy    <       0.00000100 Ry

     iteration # 10     ecut=    70.00 Ry     beta= 0.70
     Davidson diagonalization with overlap
     ethr =  2.84E-10,  avg # of iterations =  3.2

     total cpu time spent up to now is      157.7 secs

     total energy              =   -2256.27796107 Ry
     estimated scf accuracy    <       0.00000009 Ry

     iteration # 11     ecut=    70.00 Ry     beta= 0.70
     Davidson diagonalization with overlap
     ethr =  2.45E-11,  avg # of iterations =  6.7

     total cpu time spent up to now is      175.3 secs

     total energy              =   -2256.27796114 Ry
     estimated scf accuracy    <       0.00000004 Ry

     iteration # 12     ecut=    70.00 Ry     beta= 0.70
     Davidson diagonalization with overlap
     ethr =  1.05E-11,  avg # of iterations =  3.8

     total cpu time spent up to now is      188.6 secs

     total energy              =   -2256.27796115 Ry
     estimated scf accuracy    <          9.0E-09 Ry

     iteration # 13     ecut=    70.00 Ry     beta= 0.70
     Davidson diagonalization with overlap
     ethr =  2.55E-12,  avg # of iterations =  3.3

     total cpu time spent up to now is      202.2 secs

     total energy              =   -2256.27796115 Ry
     estimated scf accuracy    <          5.7E-10 Ry

     iteration # 14     ecut=    70.00 Ry     beta= 0.70
     Davidson diagonalization with overlap
     ethr =  1.61E-13,  avg # of iterations =  7.6

     total cpu time spent up to now is      222.8 secs

     total energy              =   -2256.27796115 Ry
     estimated scf accuracy    <          2.2E-10 Ry

     iteration # 15     ecut=    70.00 Ry     beta= 0.70
     Davidson diagonalization with overlap
     ethr =  1.00E-13,  avg # of iterations =  2.2

     total cpu time spent up to now is      234.4 secs

     End of self-consistent calculation

          k = 0.1250 0.1250 0.1250 (132670 PWs)   bands (ev):

   -18.4781 -18.4184 -18.3659 -18.3651 -18.3608 -18.3565 -18.3556 -18.3541
   -18.3536 -18.3532 -18.3494 -18.3479 -18.3475 -18.3462 -18.3404 -18.3401
   -18.3359 -18.3343 -18.3216 -18.3178 -18.3034 -18.3006 -18.2990 -18.2916
   -18.2788 -18.2760 -18.2739 -18.2681 -18.2663 -18.2634 -18.2577 -18.2566
   -18.2522 -18.2507 -18.2473 -18.2428 -18.2395 -18.1671 -18.1575 -18.1571
   -18.1484 -18.1431 -18.1373 -18.0965 -18.0942 -18.0844 -18.0670 -18.0633
    -9.4233  -9.3149  -9.2846  -9.2418  -9.1498  -9.1180  -9.0805  -9.0519
    -9.0023  -8.9821  -8.9487  -8.8874  -8.8785  -8.8531  -8.8338  -8.8113
    -8.7770  -8.7417  -8.6921  -8.6738  -8.6097  -8.5575  -8.5430  -8.4925
    -5.2539  -5.2467  -5.2261  -5.1971  -5.1911  -5.1687  -5.1386  -5.1338
    -5.1331  -5.1277  -5.1222  -5.1109  -5.1002  -5.0836  -5.0742  -5.0712
    -5.0670  -5.0644  -5.0611  -5.0574  -5.0481  -4.9542  -4.9343  -4.9258
    -4.4360  -3.9710  -3.9219  -3.8642  -3.4109  -3.3711  -3.3306  -2.7673
    -0.7856  -0.7076  -0.6474  -0.6109  -0.5724  -0.5626  -0.4807  -0.4332
    -0.3950  -0.2923  -0.2667  -0.1794   0.4176   0.4426   0.4872   0.6004
     0.6176   0.6705   0.7250   0.7457   0.8034   0.8939   0.9090   0.9653
     0.9786   1.0272   1.0758   1.0843   1.1193   1.1292   1.1589   1.1919
     1.2094   1.2295   1.2411   1.2831   1.3105   1.3434   1.3771   1.4039
     1.4173   1.4452   1.4715   1.4776   1.5168   1.5458   1.5514   1.5738
     1.5907   1.6100   1.6220   1.6376   1.6662   1.7005   1.7271   1.7594
     1.7883   1.8046   1.8595   1.9364   1.9921   2.0304   2.1093   2.1234
     2.1584   2.1862   2.2334   2.3321   2.5770   2.6357   2.7921   3.0638

          k = 0.1250 0.1250 0.3750 (132608 PWs)   bands (ev):

   -18.4781 -18.4184 -18.3659 -18.3651 -18.3608 -18.3565 -18.3556 -18.3541
   -18.3536 -18.3532 -18.3494 -18.3479 -18.3475 -18.3462 -18.3404 -18.3401
   -18.3359 -18.3343 -18.3216 -18.3178 -18.3034 -18.3006 -18.2990 -18.2916
   -18.2788 -18.2760 -18.2739 -18.2681 -18.2663 -18.2634 -18.2577 -18.2566
   -18.2522 -18.2507 -18.2473 -18.2428 -18.2395 -18.1671 -18.1575 -18.1571
   -18.1484 -18.1431 -18.1373 -18.0965 -18.0942 -18.0844 -18.0670 -18.0633
    -9.3972  -9.3329  -9.2869  -9.2312  -9.1813  -9.1409  -9.0747  -9.0432
    -9.0101  -8.9736  -8.9460  -8.8869  -8.8668  -8.8518  -8.8182  -8.8078
    -8.7790  -8.7405  -8.6993  -8.6652  -8.6166  -8.5593  -8.5357  -8.5041
    -5.2538  -5.2464  -5.2259  -5.1969  -5.1910  -5.1687  -5.1386  -5.1338
    -5.1329  -5.1277  -5.1224  -5.1110  -5.1006  -5.0836  -5.0729  -5.0714
    -5.0679  -5.0649  -5.0621  -5.0569  -5.0486  -4.9545  -4.9347  -4.9257
    -4.3113  -4.1097  -3.8259  -3.7458  -3.5800  -3.5361  -3.2079  -2.9718
    -0.7494  -0.6720  -0.6206  -0.5699  -0.5020  -0.4324  -0.4073  -0.3641
    -0.1326  -0.1103  -0.0476   0.1420   0.3676   0.4312   0.4786   0.5059
     0.5648   0.5763   0.6159   0.6628   0.7024   0.7322   0.7607   0.8396
     0.8999   0.9212   0.9731   0.9933   1.0616   1.0892   1.1083   1.1355
     1.1758   1.2110   1.2783   1.2862   1.3360   1.3403   1.3594   1.4019
     1.4090   1.4319   1.4581   1.4821   1.5272   1.5567   1.5848   1.6096
     1.6146   1.6463   1.6542   1.6731   1.7024   1.7234   1.7337   1.7841
     1.8262   1.8584   1.8805   1.9008   1.9330   1.9695   2.0184   2.0668
     2.1184   2.1613   2.2416   2.2926   2.3873   2.4994   2.7466   2.9100

          k = 0.1250 0.3750 0.3750 (132616 PWs)   bands (ev):

   -18.4781 -18.4184 -18.3658 -18.3652 -18.3608 -18.3565 -18.3556 -18.3542
   -18.3536 -18.3532 -18.3494 -18.3479 -18.3475 -18.3462 -18.3404 -18.3401
   -18.3359 -18.3343 -18.3216 -18.3178 -18.3034 -18.3006 -18.2990 -18.2916
   -18.2788 -18.2760 -18.2739 -18.2681 -18.2663 -18.2634 -18.2577 -18.2566
   -18.2522 -18.2507 -18.2473 -18.2428 -18.2395 -18.1671 -18.1575 -18.1571
   -18.1484 -18.1431 -18.1373 -18.0965 -18.0942 -18.0844 -18.0670 -18.0633
    -9.3797  -9.3306  -9.3078  -9.2175  -9.1886  -9.1449  -9.0938  -9.0415
    -9.0121  -8.9753  -8.9473  -8.8866  -8.8655  -8.8533  -8.8130  -8.8007
    -8.7568  -8.7315  -8.7148  -8.6636  -8.6159  -8.5635  -8.5391  -8.5060
    -5.2537  -5.2463  -5.2258  -5.1970  -5.1911  -5.1687  -5.1385  -5.1337
    -5.1327  -5.1276  -5.1225  -5.1111  -5.1005  -5.0838  -5.0729  -5.0712
    -5.0679  -5.0639  -5.0620  -5.0584  -5.0481  -4.9545  -4.9349  -4.9257
    -4.1947  -4.0256  -3.9456  -3.7464  -3.6305  -3.4205  -3.3702  -3.1610
    -0.7239  -0.6525  -0.5975  -0.4955  -0.3250  -0.2313  -0.1713  -0.1366
    -0.0487   0.0124   0.0350   0.1764   0.3565   0.3905   0.4567   0.4823
     0.5008   0.5673   0.5831   0.6240   0.6403   0.6846   0.7350   0.7454
     0.7999   0.8642   0.8983   0.9395   0.9988   1.0237   1.0518   1.0877
     1.1197   1.1856   1.2128   1.2479   1.2806   1.3046   1.3391   1.3609
     1.3992   1.4242   1.4728   1.4968   1.5269   1.5663   1.5891   1.6016
     1.6308   1.6465   1.6700   1.6838   1.7059   1.7256   1.7818   1.8149
     1.8518   1.8766   1.8869   1.9058   1.9412   1.9616   2.0021   2.0269
     2.0744   2.1111   2.1535   2.1806   2.3071   2.4356   2.5224   2.6110

          k = 0.3750 0.3750 0.3750 (132612 PWs)   bands (ev):

   -18.4781 -18.4184 -18.3658 -18.3652 -18.3608 -18.3565 -18.3556 -18.3542
   -18.3536 -18.3532 -18.3494 -18.3479 -18.3475 -18.3462 -18.3404 -18.3401
   -18.3359 -18.3343 -18.3216 -18.3178 -18.3034 -18.3006 -18.2990 -18.2916
   -18.2788 -18.2760 -18.2739 -18.2681 -18.2663 -18.2634 -18.2577 -18.2566
   -18.2522 -18.2507 -18.2473 -18.2428 -18.2395 -18.1671 -18.1575 -18.1571
   -18.1484 -18.1431 -18.1373 -18.0965 -18.0942 -18.0844 -18.0670 -18.0633
    -9.3591  -9.3256  -9.2999  -9.2444  -9.2023  -9.1609  -9.1016  -9.0336
    -9.0199  -8.9782  -8.9342  -8.8770  -8.8533  -8.8381  -8.8190  -8.8041
    -8.7551  -8.7339  -8.7140  -8.6607  -8.6182  -8.5681  -8.5411  -8.5072
    -5.2538  -5.2463  -5.2258  -5.1967  -5.1912  -5.1689  -5.1386  -5.1341
    -5.1329  -5.1274  -5.1222  -5.1113  -5.1006  -5.0839  -5.0729  -5.0710
    -5.0680  -5.0637  -5.0619  -5.0579  -5.0478  -4.9543  -4.9343  -4.9263
    -4.0674  -3.9195  -3.8309  -3.8058  -3.6303  -3.5988  -3.5338  -3.3504
    -0.4638  -0.3837  -0.3259  -0.2569  -0.2451  -0.2004  -0.1193  -0.0616
     0.0035   0.0272   0.0958   0.2073   0.3004   0.3662   0.4008   0.4206
     0.4608   0.5017   0.5254   0.5635   0.5966   0.6275   0.6648   0.7079
     0.7738   0.8544   0.8857   0.9072   0.9802   1.0039   1.0223   1.0471
     1.0733   1.0944   1.1560   1.1938   1.2274   1.2393   1.2726   1.3065
     1.3468   1.3795   1.3846   1.4668   1.5355   1.5763   1.6121   1.6271
     1.6600   1.6848   1.7168   1.7422   1.7544   1.7706   1.8031   1.8125
     1.8375   1.8686   1.8826   1.9279   1.9361   1.9557   1.9673   1.9992
     2.0243   2.0662   2.1130   2.1325   2.1539   2.2290   2.2804   2.3466

          k =-0.1250-0.1250 0.1250 (132670 PWs)   bands (ev):

   -18.4781 -18.4184 -18.3659 -18.3651 -18.3608 -18.3565 -18.3556 -18.3541
   -18.3536 -18.3532 -18.3494 -18.3479 -18.3475 -18.3462 -18.3404 -18.3401
   -18.3359 -18.3343 -18.3216 -18.3178 -18.3034 -18.3006 -18.2990 -18.2916
   -18.2788 -18.2760 -18.2739 -18.2681 -18.2663 -18.2634 -18.2577 -18.2566
   -18.2522 -18.2507 -18.2473 -18.2428 -18.2395 -18.1671 -18.1575 -18.1571
   -18.1484 -18.1431 -18.1373 -18.0965 -18.0942 -18.0844 -18.0670 -18.0633
    -9.4236  -9.3113  -9.2870  -9.2454  -9.1443  -9.1162  -9.0746  -9.0620
    -9.0116  -8.9754  -8.9494  -8.8899  -8.8734  -8.8509  -8.8306  -8.8118
    -8.7797  -8.7436  -8.6930  -8.6732  -8.6088  -8.5580  -8.5433  -8.4922
    -5.2539  -5.2466  -5.2262  -5.1970  -5.1911  -5.1687  -5.1386  -5.1337
    -5.1331  -5.1279  -5.1223  -5.1109  -5.1004  -5.0837  -5.0740  -5.0710
    -5.0665  -5.0644  -5.0612  -5.0577  -5.0484  -4.9541  -4.9344  -4.9258
    -4.4362  -3.9653  -3.9287  -3.8630  -3.4027  -3.3761  -3.3348  -2.7652
    -0.7896  -0.7197  -0.6756  -0.6300  -0.5690  -0.5096  -0.4737  -0.4197
    -0.3830  -0.3075  -0.2609  -0.1885   0.4222   0.4385   0.4862   0.5942
     0.6232   0.6817   0.7338   0.7608   0.7802   0.8819   0.9048   0.9243
     0.9871   1.0395   1.0538   1.0851   1.1183   1.1405   1.1544   1.1894
     1.2171   1.2324   1.2717   1.2812   1.3138   1.3449   1.3671   1.4056
     1.4183   1.4441   1.4620   1.4971   1.5102   1.5270   1.5456   1.5709
     1.5891   1.6153   1.6215   1.6397   1.6697   1.7031   1.7289   1.7577
     1.7851   1.8076   1.8738   1.9532   1.9882   2.0262   2.0966   2.1338
     2.1450   2.1812   2.2547   2.3207   2.5708   2.6472   2.8069   3.0492

          k =-0.1250 0.1250-0.1250 (132670 PWs)   bands (ev):

   -18.4781 -18.4184 -18.3659 -18.3651 -18.3608 -18.3565 -18.3556 -18.3541
   -18.3536 -18.3532 -18.3494 -18.3479 -18.3475 -18.3462 -18.3404 -18.3401
   -18.3359 -18.3343 -18.3216 -18.3178 -18.3034 -18.3006 -18.2990 -18.2916
   -18.2788 -18.2760 -18.2739 -18.2681 -18.2663 -18.2634 -18.2577 -18.2566
   -18.2522 -18.2507 -18.2473 -18.2428 -18.2395 -18.1671 -18.1575 -18.1571
   -18.1484 -18.1431 -18.1373 -18.0965 -18.0942 -18.0844 -18.0670 -18.0633
    -9.4224  -9.3190  -9.2842  -9.2368  -9.1554  -9.1170  -9.0741  -9.0504
    -9.0037  -8.9898  -8.9463  -8.8898  -8.8748  -8.8516  -8.8369  -8.8092
    -8.7775  -8.7421  -8.6922  -8.6737  -8.6083  -8.5580  -8.5437  -8.4925
    -5.2538  -5.2467  -5.2261  -5.1971  -5.1911  -5.1687  -5.1385  -5.1336
    -5.1332  -5.1278  -5.1223  -5.1109  -5.1006  -5.0838  -5.0741  -5.0711
    -5.0666  -5.0642  -5.0611  -5.0577  -5.0483  -4.9541  -4.9343  -4.9258
    -4.4355  -3.9685  -3.9365  -3.8504  -3.4220  -3.3636  -3.3299  -2.7654
    -0.7885  -0.7273  -0.6977  -0.5907  -0.5727  -0.5243  -0.4647  -0.4298
    -0.3789  -0.2909  -0.2636  -0.1965   0.4195   0.4394   0.4865   0.6059
     0.6275   0.6795   0.7296   0.7353   0.7912   0.8785   0.9100   0.9476
     0.9880   1.0330   1.0532   1.0695   1.1200   1.1346   1.1589   1.2049
     1.2146   1.2311   1.2503   1.2778   1.3061   1.3467   1.3842   1.4037
     1.4069   1.4349   1.4580   1.5004   1.5141   1.5292   1.5512   1.5598
     1.6068   1.6127   1.6329   1.6522   1.6642   1.6973   1.7237   1.7706
     1.7942   1.8075   1.8640   1.9497   2.0014   2.0074   2.0942   2.1241
     2.1649   2.1778   2.2389   2.3262   2.5764   2.6451   2.7926   3.0806

          k = 0.1250-0.1250-0.1250 (132670 PWs)   bands (ev):

   -18.4781 -18.4184 -18.3659 -18.3651 -18.3608 -18.3565 -18.3556 -18.3541
   -18.3536 -18.3532 -18.3494 -18.3479 -18.3475 -18.3462 -18.3404 -18.3401
   -18.3359 -18.3343 -18.3216 -18.3178 -18.3034 -18.3006 -18.2990 -18.2916
   -18.2788 -18.2760 -18.2739 -18.2681 -18.2663 -18.2634 -18.2577 -18.2566
   -18.2522 -18.2507 -18.2473 -18.2428 -18.2395 -18.1671 -18.1575 -18.1571
   -18.1484 -18.1431 -18.1373 -18.0965 -18.0942 -18.0844 -18.0670 -18.0633
    -9.4229  -9.3155  -9.2865  -9.2395  -9.1524  -9.1132  -9.0741  -9.0574
    -9.0136  -8.9755  -8.9499  -8.8863  -8.8765  -8.8526  -8.8304  -8.8137
    -8.7785  -8.7415  -8.6929  -8.6745  -8.6088  -8.5569  -8.5437  -8.4924
    -5.2538  -5.2466  -5.2262  -5.1970  -5.1911  -5.1687  -5.1388  -5.1337
    -5.1331  -5.1277  -5.1223  -5.1109  -5.1004  -5.0835  -5.0744  -5.0711
    -5.0669  -5.0644  -5.0612  -5.0575  -5.0481  -4.9541  -4.9344  -4.9257
    -4.4351  -3.9729  -3.9307  -3.8528  -3.4254  -3.3534  -3.3348  -2.7675
    -0.7898  -0.7251  -0.6569  -0.5972  -0.5527  -0.5323  -0.5081  -0.4323
    -0.3959  -0.3009  -0.2632  -0.1796   0.4252   0.4369   0.4835   0.6016
     0.6342   0.6692   0.7247   0.7492   0.7961   0.8652   0.9224   0.9583
     0.9919   1.0179   1.0659   1.0888   1.1136   1.1369   1.1614   1.1985
     1.2179   1.2325   1.2636   1.2879   1.3102   1.3304   1.3529   1.3892
     1.4036   1.4557   1.4740   1.4967   1.5170   1.5392   1.5412   1.5645
     1.5861   1.6135   1.6202   1.6618   1.6833   1.6996   1.7231   1.7537
     1.7811   1.8051   1.8620   1.9323   1.9893   2.0377   2.1049   2.1171
     2.1634   2.1948   2.2408   2.3229   2.5571   2.6403   2.7993   3.0746

          k =-0.1250-0.1250 0.3750 (132608 PWs)   bands (ev):

   -18.4781 -18.4184 -18.3659 -18.3651 -18.3608 -18.3565 -18.3556 -18.3541
   -18.3536 -18.3532 -18.3494 -18.3479 -18.3475 -18.3462 -18.3404 -18.3401
   -18.3359 -18.3343 -18.3216 -18.3178 -18.3034 -18.3006 -18.2990 -18.2916
   -18.2788 -18.2760 -18.2739 -18.2681 -18.2663 -18.2634 -18.2577 -18.2566
   -18.2522 -18.2507 -18.2473 -18.2428 -18.2395 -18.1671 -18.1575 -18.1571
   -18.1484 -18.1431 -18.1373 -18.0965 -18.0942 -18.0844 -18.0670 -18.0633
    -9.3982  -9.3275  -9.2924  -9.2338  -9.1763  -9.1385  -9.0721  -9.0500
    -9.0151  -8.9699  -8.9476  -8.8863  -8.8636  -8.8503  -8.8151  -8.8060
    -8.7845  -8.7420  -8.7003  -8.6647  -8.6157  -8.5598  -8.5362  -8.5036
    -5.2538  -5.2463  -5.2260  -5.1969  -5.1910  -5.1687  -5.1385  -5.1336
    -5.1328  -5.1279  -5.1225  -5.1110  -5.1008  -5.0838  -5.0727  -5.0713
    -5.0673  -5.0649  -5.0622  -5.0571  -5.0488  -4.9544  -4.9347  -4.9257
    -4.3122  -4.1072  -3.8309  -3.7439  -3.5705  -3.5427  -3.2125  -2.9678
    -0.7533  -0.6773  -0.6232  -0.5761  -0.5063  -0.4406  -0.4101  -0.3434
    -0.1342  -0.0748  -0.0344   0.1335   0.3543   0.4539   0.4783   0.4995
     0.5351   0.5874   0.6097   0.6442   0.7032   0.7223   0.7766   0.8228
     0.8933   0.9172   0.9810   1.0034   1.0472   1.1061   1.1157   1.1576
     1.1729   1.2040   1.2546   1.2893   1.3191   1.3424   1.3656   1.3967
     1.4225   1.4307   1.4750   1.4903   1.5352   1.5514   1.5766   1.5996
     1.6184   1.6344   1.6463   1.6773   1.7063   1.7269   1.7541   1.7624
     1.8298   1.8352   1.8815   1.9028   1.9669   1.9829   2.0357   2.0539
     2.1179   2.1407   2.2136   2.3150   2.4058   2.4971   2.7448   2.9015

          k =-0.1250 0.1250-0.3750 (132608 PWs)   bands (ev):

   -18.4781 -18.4184 -18.3659 -18.3651 -18.3608 -18.3565 -18.3556 -18.3541
   -18.3536 -18.3532 -18.3494 -18.3479 -18.3475 -18.3462 -18.3404 -18.3401
   -18.3359 -18.3343 -18.3216 -18.3178 -18.3034 -18.3006 -18.2990 -18.2916
   -18.2788 -18.2760 -18.2739 -18.2681 -18.2663 -18.2634 -18.2577 -18.2566
   -18.2522 -18.2507 -18.2473 -18.2428 -18.2395 -18.1671 -18.1575 -18.1571
   -18.1484 -18.1431 -18.1373 -18.0965 -18.0942 -18.0844 -18.0670 -18.0633
    -9.3962  -9.3321  -9.2938  -9.2227  -9.1880  -9.1379  -9.0610  -9.0514
    -9.0158  -8.9768  -8.9433  -8.8903  -8.8624  -8.8513  -8.8214  -8.8035
    -8.7804  -8.7417  -8.6994  -8.6642  -8.6157  -8.5601  -8.5363  -8.5038
    -5.2538  -5.2464  -5.2259  -5.1969  -5.1910  -5.1687  -5.1384  -5.1337
    -5.1329  -5.1279  -5.1225  -5.1110  -5.1010  -5.0839  -5.0727  -5.0714
    -5.0673  -5.0648  -5.0621  -5.0571  -5.0487  -4.9544  -4.9347  -4.9257
    -4.3112  -4.1065  -3.8421  -3.7317  -3.5852  -3.5301  -3.2129  -2.9679
    -0.7488  -0.6847  -0.6420  -0.5494  -0.5149  -0.4578  -0.3971  -0.3352
    -0.1275  -0.0763  -0.0295   0.1265   0.3527   0.4344   0.4724   0.5236
     0.5471   0.5817   0.6020   0.6450   0.7006   0.7340   0.7681   0.8346
     0.8942   0.9193   0.9640   0.9996   1.0721   1.1035   1.1199   1.1369
     1.1682   1.1912   1.2604   1.2847   1.3099   1.3522   1.3707   1.3958
     1.4134   1.4281   1.4678   1.4983   1.5349   1.5549   1.5816   1.5990
     1.6204   1.6491   1.6643   1.6807   1.6973   1.7191   1.7589   1.7730
     1.8258   1.8491   1.8802   1.8881   1.9604   1.9701   2.0186   2.0643
     2.1181   2.1555   2.2183   2.3061   2.3956   2.4872   2.7531   2.9239

          k = 0.1250-0.1250-0.3750 (132608 PWs)   bands (ev):

   -18.4781 -18.4184 -18.3659 -18.3651 -18.3608 -18.3565 -18.3556 -18.3541
   -18.3536 -18.3532 -18.3494 -18.3479 -18.3475 -18.3462 -18.3404 -18.3401
   -18.3359 -18.3343 -18.3216 -18.3178 -18.3034 -18.3006 -18.2990 -18.2916
   -18.2788 -18.2760 -18.2739 -18.2681 -18.2663 -18.2634 -18.2577 -18.2566
   -18.2522 -18.2507 -18.2473 -18.2428 -18.2395 -18.1671 -18.1575 -18.1571
   -18.1484 -18.1431 -18.1373 -18.0965 -18.0942 -18.0844 -18.0670 -18.0633
    -9.3975  -9.3271  -9.2963  -9.2297  -9.1821  -9.1323  -9.0690  -9.0534
    -9.0173  -8.9690  -8.9468  -8.8880  -8.8625  -8.8493  -8.8177  -8.8095
    -8.7803  -8.7409  -8.6998  -8.6656  -8.6160  -8.5590  -8.5363  -8.5038
    -5.2538  -5.2463  -5.2259  -5.1969  -5.1910  -5.1687  -5.1386  -5.1337
    -5.1327  -5.1277  -5.1224  -5.1110  -5.1007  -5.0836  -5.0731  -5.0713
    -5.0677  -5.0650  -5.0621  -5.0569  -5.0485  -4.9544  -4.9348  -4.9256
    -4.3103  -4.1084  -3.8371  -3.7362  -3.5930  -3.5216  -3.2098  -2.9717
    -0.7535  -0.6817  -0.6140  -0.5667  -0.4953  -0.4488  -0.3984  -0.3525
    -0.1375  -0.1178  -0.0464   0.1441   0.3687   0.4459   0.4818   0.4972
     0.5688   0.5927   0.6096   0.6452   0.7065   0.7213   0.7673   0.8237
     0.9057   0.9377   0.9452   1.0050   1.0709   1.1056   1.1227   1.1370
     1.1645   1.1966   1.2651   1.2784   1.3077   1.3377   1.3751   1.4060
     1.4161   1.4381   1.4531   1.4974   1.5213   1.5386   1.5789   1.6148
     1.6336   1.6425   1.6622   1.6889   1.7011   1.7142   1.7413   1.7682
     1.8203   1.8540   1.8845   1.8958   1.9521   1.9720   2.0316   2.0664
     2.1090   2.1470   2.2401   2.2953   2.3838   2.4926   2.7563   2.9155

          k = 0.3750-0.1250 0.1250 (132608 PWs)   bands (ev):

   -18.4781 -18.4184 -18.3659 -18.3651 -18.3608 -18.3565 -18.3556 -18.3541
   -18.3536 -18.3532 -18.3494 -18.3479 -18.3475 -18.3462 -18.3404 -18.3401
   -18.3359 -18.3343 -18.3216 -18.3178 -18.3034 -18.3006 -18.2990 -18.2916
   -18.2788 -18.2760 -18.2739 -18.2681 -18.2663 -18.2634 -18.2577 -18.2566
   -18.2522 -18.2507 -18.2473 -18.2428 -18.2395 -18.1671 -18.1575 -18.1571
   -18.1484 -18.1431 -18.1373 -18.0965 -18.0942 -18.0844 -18.0670 -18.0633
    -9.3951  -9.3453  -9.2758  -9.2274  -9.1899  -9.1345  -9.0720  -9.0361
    -9.0114  -8.9901  -8.9420  -8.8839  -8.8666  -8.8423  -8.8379  -8.8032
    -8.7774  -8.7435  -8.6936  -8.6638  -8.6107  -8.5654  -8.5481  -8.4937
    -5.2537  -5.2465  -5.2259  -5.1967  -5.1911  -5.1687  -5.1383  -5.1339
    -5.1333  -5.1272  -5.1221  -5.1111  -5.1007  -5.0840  -5.0742  -5.0712
    -5.0668  -5.0641  -5.0611  -5.0575  -5.0484  -4.9541  -4.9341  -4.9265
    -4.2996  -4.0828  -3.8181  -3.7728  -3.5802  -3.5348  -3.2599  -2.9908
    -0.7019  -0.6661  -0.6140  -0.5245  -0.4614  -0.4314  -0.3744  -0.3141
    -0.1218  -0.0749  -0.0385   0.0601   0.3988   0.4335   0.4918   0.5021
     0.5385   0.5657   0.6301   0.6428   0.6772   0.6877   0.7792   0.7933
     0.8580   0.8856   0.9727   1.0230   1.0643   1.0876   1.1532   1.1669
     1.1972   1.2212   1.2519   1.2722   1.3147   1.3313   1.3820   1.3950
     1.4120   1.4363   1.4535   1.4965   1.5240   1.5464   1.5608   1.5819
     1.6225   1.6446   1.6574   1.6718   1.7139   1.7359   1.7596   1.7771
     1.7941   1.8319   1.8688   1.8944   1.9276   1.9639   2.0137   2.0551
     2.1113   2.1397   2.2021   2.2816   2.3418   2.5731   2.6300   2.8691

          k =-0.3750-0.1250-0.1250 (132608 PWs)   bands (ev):

   -18.4781 -18.4184 -18.3659 -18.3651 -18.3608 -18.3565 -18.3556 -18.3541
   -18.3536 -18.3532 -18.3494 -18.3479 -18.3475 -18.3462 -18.3404 -18.3401
   -18.3359 -18.3343 -18.3216 -18.3178 -18.3034 -18.3006 -18.2990 -18.2916
   -18.2788 -18.2760 -18.2739 -18.2681 -18.2663 -18.2634 -18.2577 -18.2566
   -18.2522 -18.2507 -18.2473 -18.2428 -18.2395 -18.1671 -18.1575 -18.1571
   -18.1484 -18.1431 -18.1373 -18.0965 -18.0942 -18.0844 -18.0670 -18.0633
    -9.3974  -9.3401  -9.2778  -9.2329  -9.1817  -9.1373  -9.0773  -9.0364
    -9.0117  -8.9786  -8.9493  -8.8788  -8.8731  -8.8419  -8.8346  -8.8047
    -8.7767  -8.7436  -8.6935  -8.6639  -8.6125  -8.5645  -8.5474  -8.4938
    -5.2538  -5.2465  -5.2258  -5.1967  -5.1911  -5.1687  -5.1384  -5.1339
    -5.1335  -5.1272  -5.1220  -5.1111  -5.1003  -5.0838  -5.0744  -5.0713
    -5.0673  -5.0642  -5.0612  -5.0573  -5.0483  -4.9541  -4.9341  -4.9265
    -4.3020  -4.0753  -3.8270  -3.7782  -3.5687  -3.5298  -3.2681  -2.9907
    -0.6674  -0.6372  -0.6262  -0.5379  -0.4869  -0.4667  -0.3590  -0.3148
    -0.1338  -0.0630  -0.0410   0.0616   0.3897   0.4385   0.4854   0.5083
     0.5440   0.5748   0.6087   0.6290   0.6715   0.7211   0.7767   0.7998
     0.8604   0.8986   0.9317   1.0477   1.0801   1.1011   1.1346   1.1691
     1.1989   1.2324   1.2631   1.2966   1.3104   1.3487   1.3728   1.3790
     1.3923   1.4285   1.4532   1.4789   1.5277   1.5570   1.5750   1.6014
     1.6073   1.6419   1.6598   1.6727   1.6971   1.7165   1.7460   1.7657
     1.8132   1.8293   1.8654   1.8878   1.9324   1.9576   2.0198   2.0738
     2.1120   2.1470   2.2015   2.2761   2.3508   2.5634   2.6184   2.8640

          k = 0.3750 0.1250-0.1250 (132608 PWs)   bands (ev):

   -18.4781 -18.4184 -18.3659 -18.3651 -18.3608 -18.3565 -18.3556 -18.3541
   -18.3536 -18.3532 -18.3494 -18.3479 -18.3475 -18.3462 -18.3404 -18.3401
   -18.3359 -18.3343 -18.3216 -18.3178 -18.3034 -18.3006 -18.2990 -18.2916
   -18.2788 -18.2760 -18.2739 -18.2681 -18.2663 -18.2634 -18.2577 -18.2566
   -18.2522 -18.2507 -18.2473 -18.2428 -18.2395 -18.1671 -18.1575 -18.1571
   -18.1484 -18.1431 -18.1373 -18.0965 -18.0942 -18.0844 -18.0670 -18.0633
    -9.3986  -9.3361  -9.2806  -9.2364  -9.1788  -9.1326  -9.0729  -9.0460
    -9.0168  -8.9793  -8.9427  -8.8825  -8.8698  -8.8384  -8.8321  -8.8059
    -8.7797  -8.7448  -8.6943  -8.6634  -8.6115  -8.5651  -8.5476  -8.4934
    -5.2538  -5.2464  -5.2259  -5.1967  -5.1911  -5.1687  -5.1384  -5.1340
    -5.1332  -5.1273  -5.1221  -5.1111  -5.1005  -5.0840  -5.0741  -5.0711
    -5.0667  -5.0643  -5.0612  -5.0576  -5.0485  -4.9541  -4.9341  -4.9265
    -4.3023  -4.0754  -3.8184  -3.7838  -3.5763  -3.5271  -3.2666  -2.9892
    -0.6959  -0.6701  -0.6099  -0.5304  -0.4608  -0.4419  -0.3431  -0.3186
    -0.1509  -0.0723  -0.0393   0.0641   0.3996   0.4480   0.4775   0.5020
     0.5442   0.5681   0.6080   0.6372   0.6871   0.7197   0.7539   0.7967
     0.8583   0.8947   0.9695   1.0164   1.0681   1.0942   1.1340   1.1667
     1.1955   1.2222   1.2592   1.2799   1.3078   1.3470   1.3711   1.4057
     1.4141   1.4512   1.4674   1.4815   1.5210   1.5453   1.5629   1.5925
     1.6156   1.6231   1.6695   1.6990   1.7031   1.7231   1.7434   1.7618
     1.7770   1.8409   1.8581   1.8870   1.9464   1.9730   2.0198   2.0651
     2.1084   2.1453   2.2031   2.2789   2.3324   2.5683   2.6516   2.8480

          k =-0.3750 0.1250 0.1250 (132608 PWs)   bands (ev):

   -18.4781 -18.4184 -18.3659 -18.3651 -18.3608 -18.3565 -18.3556 -18.3541
   -18.3536 -18.3532 -18.3494 -18.3479 -18.3475 -18.3462 -18.3404 -18.3401
   -18.3359 -18.3343 -18.3216 -18.3178 -18.3034 -18.3006 -18.2990 -18.2916
   -18.2788 -18.2760 -18.2739 -18.2681 -18.2663 -18.2634 -18.2577 -18.2566
   -18.2522 -18.2507 -18.2473 -18.2428 -18.2395 -18.1671 -18.1575 -18.1571
   -18.1484 -18.1431 -18.1373 -18.0965 -18.0942 -18.0844 -18.0670 -18.0633
    -9.3964  -9.3421  -9.2775  -9.2318  -9.1843  -9.1317  -9.0771  -9.0375
    -9.0183  -8.9759  -8.9503  -8.8775  -8.8714  -8.8420  -8.8311  -8.8070
    -8.7781  -8.7429  -8.6941  -8.6654  -8.6113  -8.5638  -8.5482  -8.4937
    -5.2537  -5.2464  -5.2259  -5.1967  -5.1911  -5.1687  -5.1386  -5.1337
    -5.1334  -5.1271  -5.1221  -5.1111  -5.1004  -5.0837  -5.0746  -5.0712
    -5.0672  -5.0642  -5.0612  -5.0574  -5.0482  -4.9541  -4.9341  -4.9264
    -4.2993  -4.0817  -3.8266  -3.7699  -3.5769  -3.5292  -3.2642  -2.9917
    -0.6750  -0.6460  -0.6280  -0.5337  -0.4787  -0.4584  -0.3536  -0.3103
    -0.1484  -0.0724  -0.0431   0.0743   0.4095   0.4442   0.4747   0.5013
     0.5452   0.5729   0.6144   0.6489   0.6732   0.6998   0.7590   0.7945
     0.8565   0.9039   0.9373   1.0429   1.0861   1.1053   1.1427   1.1688
     1.1855   1.2325   1.2767   1.2919   1.3075   1.3333   1.3466   1.3830
     1.4148   1.4339   1.4474   1.4873   1.5421   1.5652   1.5687   1.5927
     1.6097   1.6240   1.6581   1.6865   1.7164   1.7235   1.7521   1.7701
     1.7866   1.8148   1.8439   1.8964   1.9499   1.9672   2.0255   2.0514
     2.1165   2.1441   2.2145   2.2744   2.3402   2.5550   2.6289   2.8694

          k =-0.1250 0.3750 0.1250 (132608 PWs)   bands (ev):

   -18.4781 -18.4184 -18.3658 -18.3652 -18.3608 -18.3565 -18.3556 -18.3542
   -18.3536 -18.3532 -18.3494 -18.3479 -18.3475 -18.3462 -18.3404 -18.3401
   -18.3359 -18.3343 -18.3216 -18.3178 -18.3034 -18.3006 -18.2990 -18.2916
   -18.2787 -18.2760 -18.2739 -18.2681 -18.2663 -18.2634 -18.2577 -18.2566
   -18.2522 -18.2507 -18.2473 -18.2428 -18.2395 -18.1671 -18.1575 -18.1571
   -18.1484 -18.1431 -18.1373 -18.0965 -18.0942 -18.0844 -18.0670 -18.0633
    -9.4042  -9.3412  -9.2794  -9.2279  -9.1622  -9.1163  -9.0881  -9.0568
    -9.0153  -8.9815  -8.9502  -8.8882  -8.8698  -8.8560  -8.8260  -8.8070
    -8.7553  -8.7308  -8.7104  -8.6730  -8.6052  -8.5620  -8.5453  -8.4973
    -5.2537  -5.2465  -5.2260  -5.1968  -5.1910  -5.1686  -5.1389  -5.1336
    -5.1328  -5.1279  -5.1223  -5.1110  -5.0999  -5.0832  -5.0752  -5.0702
    -5.0675  -5.0636  -5.0613  -5.0590  -5.0482  -4.9542  -4.9345  -4.9258
    -4.3143  -4.1056  -3.8334  -3.7449  -3.5822  -3.5037  -3.2372  -2.9681
    -0.7645  -0.6992  -0.6589  -0.5727  -0.5306  -0.5269  -0.3620  -0.2752
    -0.0937  -0.0558  -0.0167   0.0588   0.3882   0.4302   0.4823   0.5355
     0.5826   0.6136   0.6301   0.6716   0.6950   0.7363   0.7720   0.8131
     0.8804   0.9167   0.9995   1.0310   1.0700   1.0828   1.1255   1.1875
     1.2142   1.2259   1.2592   1.2819   1.3136   1.3375   1.3564   1.3831
     1.3900   1.4372   1.4713   1.4966   1.5072   1.5347   1.5490   1.5706
     1.6063   1.6368   1.6512   1.6709   1.6827   1.7264   1.7631   1.7787
     1.8249   1.8318   1.8483   1.8937   1.9622   1.9946   2.0389   2.0595
     2.0992   2.1479   2.2482   2.2931   2.3850   2.5110   2.6576   2.8014

          k =-0.1250-0.3750-0.1250 (132608 PWs)   bands (ev):

   -18.4781 -18.4184 -18.3658 -18.3652 -18.3608 -18.3565 -18.3556 -18.3542
   -18.3536 -18.3532 -18.3494 -18.3479 -18.3475 -18.3462 -18.3404 -18.3401
   -18.3359 -18.3343 -18.3216 -18.3178 -18.3034 -18.3006 -18.2990 -18.2916
   -18.2787 -18.2760 -18.2739 -18.2681 -18.2663 -18.2634 -18.2577 -18.2566
   -18.2522 -18.2507 -18.2473 -18.2428 -18.2395 -18.1671 -18.1575 -18.1571
   -18.1484 -18.1431 -18.1373 -18.0965 -18.0942 -18.0844 -18.0670 -18.0633
    -9.4053  -9.3371  -9.2843  -9.2255  -9.1627  -9.1153  -9.0949  -9.0514
    -9.0083  -8.9876  -8.9497  -8.8870  -8.8743  -8.8537  -8.8289  -8.8052
    -8.7550  -8.7308  -8.7103  -8.6714  -8.6064  -8.5624  -8.5448  -8.4973
    -5.2537  -5.2465  -5.2260  -5.1968  -5.1909  -5.1687  -5.1388  -5.1338
    -5.1327  -5.1280  -5.1222  -5.1110  -5.0998  -5.0832  -5.0752  -5.0702
    -5.0676  -5.0637  -5.0612  -5.0589  -5.0482  -4.9542  -4.9345  -4.9259
    -4.3167  -4.1001  -3.8343  -3.7521  -3.5790  -3.4990  -3.2414  -2.9672
    -0.7654  -0.6917  -0.6390  -0.5878  -0.5394  -0.5317  -0.3582  -0.2790
    -0.0982  -0.0597  -0.0069   0.0602   0.3909   0.4233   0.4827   0.5337
     0.5822   0.5895   0.6407   0.6658   0.7000   0.7405   0.7877   0.8263
     0.8833   0.9177   0.9670   1.0476   1.0655   1.1071   1.1624   1.1738
     1.2012   1.2147   1.2292   1.2651   1.2990   1.3400   1.3571   1.3749
     1.4330   1.4513   1.4746   1.4803   1.5148   1.5268   1.5688   1.5887
     1.5996   1.6300   1.6381   1.6568   1.6777   1.7299   1.7643   1.7846
     1.8153   1.8277   1.8502   1.9171   1.9474   1.9983   2.0331   2.0591
     2.1054   2.1678   2.2254   2.2959   2.3951   2.4906   2.6929   2.7748

          k = 0.1250 0.3750-0.1250 (132608 PWs)   bands (ev):

   -18.4781 -18.4184 -18.3658 -18.3652 -18.3608 -18.3565 -18.3556 -18.3542
   -18.3536 -18.3532 -18.3494 -18.3479 -18.3475 -18.3462 -18.3404 -18.3401
   -18.3359 -18.3343 -18.3216 -18.3178 -18.3034 -18.3006 -18.2990 -18.2916
   -18.2787 -18.2760 -18.2739 -18.2681 -18.2663 -18.2634 -18.2577 -18.2566
   -18.2522 -18.2507 -18.2473 -18.2428 -18.2395 -18.1671 -18.1575 -18.1571
   -18.1484 -18.1431 -18.1373 -18.0965 -18.0942 -18.0844 -18.0670 -18.0633
    -9.4056  -9.3374  -9.2801  -9.2335  -9.1538  -9.1170  -9.0924  -9.0586
    -9.0139  -8.9815  -8.9499  -8.8901  -8.8679  -8.8556  -8.8248  -8.8061
    -8.7562  -8.7327  -8.7112  -8.6712  -8.6051  -8.5631  -8.5449  -8.4970
    -5.2537  -5.2464  -5.2260  -5.1968  -5.1910  -5.1687  -5.1388  -5.1336
    -5.1328  -5.1281  -5.1223  -5.1109  -5.1000  -5.0836  -5.0748  -5.0700
    -5.0670  -5.0634  -5.0615  -5.0591  -5.0485  -4.9542  -4.9345  -4.9259
    -4.3176  -4.0984  -3.8331  -3.7588  -3.5610  -3.5111  -3.2460  -2.9630
    -0.7656  -0.6887  -0.6756  -0.5937  -0.5342  -0.5123  -0.3614  -0.2494
    -0.0891  -0.0595  -0.0131   0.0677   0.3877   0.4265   0.4910   0.5289
     0.5617   0.5855   0.6367   0.6701   0.6898   0.7272   0.7882   0.8307
     0.8920   0.9122   0.9736   1.0385   1.0670   1.0939   1.1120   1.1894
     1.1972   1.2255   1.2597   1.2985   1.3203   1.3324   1.3653   1.3916
     1.4065   1.4320   1.4688   1.4850   1.5061   1.5337   1.5448   1.5820
     1.6122   1.6429   1.6461   1.6558   1.6817   1.7335   1.7489   1.7775
     1.8152   1.8366   1.8580   1.9290   1.9486   1.9859   2.0427   2.0584
     2.1077   2.1428   2.2375   2.2759   2.4258   2.4968   2.6861   2.7668

          k = 0.1250-0.3750 0.1250 (132608 PWs)   bands (ev):

   -18.4781 -18.4184 -18.3658 -18.3652 -18.3608 -18.3565 -18.3556 -18.3542
   -18.3536 -18.3532 -18.3494 -18.3479 -18.3475 -18.3462 -18.3404 -18.3401
   -18.3359 -18.3343 -18.3216 -18.3178 -18.3034 -18.3006 -18.2990 -18.2916
   -18.2787 -18.2760 -18.2739 -18.2681 -18.2663 -18.2634 -18.2577 -18.2566
   -18.2522 -18.2507 -18.2473 -18.2428 -18.2395 -18.1671 -18.1575 -18.1571
   -18.1484 -18.1431 -18.1373 -18.0965 -18.0942 -18.0844 -18.0670 -18.0633
    -9.4036  -9.3415  -9.2829  -9.2213  -9.1679  -9.1174  -9.0869  -9.0499
    -9.0095  -8.9945  -8.9478  -8.8885  -8.8714  -8.8529  -8.8318  -8.8030
    -8.7548  -8.7324  -8.7097  -8.6713  -8.6046  -8.5632  -8.5455  -8.4972
    -5.2537  -5.2465  -5.2260  -5.1968  -5.1910  -5.1686  -5.1387  -5.1336
    -5.1328  -5.1280  -5.1223  -5.1109  -5.1001  -5.0836  -5.0750  -5.0702
    -5.0670  -5.0632  -5.0615  -5.0591  -5.0484  -4.9542  -4.9344  -4.9259
    -4.3151  -4.1038  -3.8329  -3.7507  -3.5692  -3.5118  -3.2408  -2.9645
    -0.7678  -0.6918  -0.6767  -0.5807  -0.5492  -0.5109  -0.3554  -0.2491
    -0.0876  -0.0536  -0.0145   0.0628   0.3825   0.4386   0.4875   0.5266
     0.5716   0.5959   0.6332   0.6796   0.6874   0.7165   0.7791   0.8073
     0.8812   0.9203   0.9844   1.0367   1.0619   1.1393   1.1538   1.1691
     1.1945   1.2280   1.2344   1.2639   1.2801   1.3297   1.3683   1.3898
     1.4304   1.4411   1.4609   1.4927   1.5117   1.5399   1.5605   1.5743
     1.6052   1.6273   1.6519   1.6678   1.6816   1.7368   1.7628   1.7697
     1.8198   1.8403   1.8544   1.9141   1.9621   1.9842   2.0199   2.0648
     2.1022   2.1655   2.2394   2.2709   2.4065   2.5024   2.6691   2.8002

          k =-0.1250-0.3750 0.3750 (132616 PWs)   bands (ev):

   -18.4781 -18.4184 -18.3658 -18.3652 -18.3608 -18.3565 -18.3556 -18.3542
   -18.3536 -18.3532 -18.3494 -18.3479 -18.3475 -18.3462 -18.3404 -18.3401
   -18.3359 -18.3343 -18.3216 -18.3178 -18.3034 -18.3006 -18.2990 -18.2916
   -18.2788 -18.2760 -18.2739 -18.2681 -18.2663 -18.2634 -18.2577 -18.2566
   -18.2522 -18.2507 -18.2473 -18.2428 -18.2395 -18.1671 -18.1575 -18.1571
   -18.1484 -18.1431 -18.1373 -18.0965 -18.0942 -18.0844 -18.0670 -18.0633
    -9.3808  -9.3283  -9.3078  -9.2252  -9.1795  -9.1451  -9.0923  -9.0484
    -9.0137  -8.9721  -8.9478  -8.8871  -8.8615  -8.8539  -8.8101  -8.8011
    -8.7590  -8.7327  -8.7158  -8.6635  -8.6147  -8.5641  -8.5392  -8.5057
    -5.2537  -5.2462  -5.2259  -5.1969  -5.1911  -5.1687  -5.1385  -5.1335
    -5.1328  -5.1278  -5.1225  -5.1111  -5.1007  -5.0841  -5.0726  -5.0710
    -5.0674  -5.0634  -5.0625  -5.0586  -5.0484  -4.9544  -4.9350  -4.9257
    -4.1982  -4.0079  -3.9589  -3.7642  -3.5957  -3.4402  -3.3769  -3.1522
    -0.7269  -0.6485  -0.6036  -0.5011  -0.3649  -0.2405  -0.1894  -0.0688
    -0.0113   0.0317   0.1111   0.1404   0.3045   0.3721   0.4393   0.4651
     0.5032   0.5390   0.5874   0.6155   0.6509   0.7029   0.7299   0.7592
     0.7895   0.8421   0.8962   0.9467   1.0165   1.0259   1.0739   1.0839
     1.1322   1.1651   1.2069   1.2224   1.2976   1.3244   1.3547   1.3712
     1.3963   1.4369   1.4484   1.4914   1.5166   1.5509   1.5890   1.6189
     1.6379   1.6468   1.6609   1.6765   1.7045   1.7417   1.7764   1.8168
     1.8383   1.8680   1.8889   1.9098   1.9511   1.9749   2.0192   2.0430
     2.0630   2.0812   2.1409   2.1915   2.3371   2.4228   2.5288   2.5934

          k =-0.1250 0.3750-0.3750 (132616 PWs)   bands (ev):

   -18.4781 -18.4184 -18.3658 -18.3652 -18.3608 -18.3565 -18.3556 -18.3542
   -18.3536 -18.3532 -18.3494 -18.3479 -18.3475 -18.3462 -18.3404 -18.3401
   -18.3359 -18.3343 -18.3216 -18.3178 -18.3034 -18.3006 -18.2990 -18.2916
   -18.2788 -18.2760 -18.2739 -18.2681 -18.2663 -18.2634 -18.2577 -18.2566
   -18.2522 -18.2507 -18.2473 -18.2428 -18.2395 -18.1671 -18.1575 -18.1571
   -18.1484 -18.1431 -18.1373 -18.0965 -18.0942 -18.0844 -18.0670 -18.0633
    -9.3777  -9.3304  -9.3131  -9.2079  -9.1977  -9.1429  -9.0862  -9.0450
    -9.0149  -8.9794  -8.9448  -8.8894  -8.8620  -8.8530  -8.8142  -8.7984
    -8.7573  -8.7335  -8.7145  -8.6623  -8.6149  -8.5644  -8.5397  -8.5057
    -5.2537  -5.2463  -5.2258  -5.1969  -5.1911  -5.1687  -5.1384  -5.1337
    -5.1327  -5.1277  -5.1225  -5.1111  -5.1009  -5.0842  -5.0727  -5.0711
    -5.0675  -5.0633  -5.0624  -5.0585  -5.0482  -4.9544  -4.9349  -4.9257
    -4.1950  -4.0085  -3.9633  -3.7652  -3.5951  -3.4342  -3.3791  -3.1534
    -0.7252  -0.6533  -0.6045  -0.5051  -0.3587  -0.2469  -0.1841  -0.0644
    -0.0140   0.0431   0.1091   0.1363   0.3030   0.3793   0.4290   0.4609
     0.5221   0.5414   0.5767   0.6191   0.6541   0.6973   0.7313   0.7496
     0.7882   0.8413   0.9078   0.9367   1.0109   1.0443   1.0575   1.0802
     1.1352   1.1748   1.2080   1.2206   1.2961   1.3166   1.3431   1.3651
     1.3870   1.4306   1.4616   1.4923   1.5334   1.5549   1.5868   1.5996
     1.6396   1.6529   1.6806   1.6934   1.7190   1.7419   1.7673   1.8173
     1.8348   1.8594   1.8859   1.9079   1.9443   1.9666   2.0196   2.0349
     2.0546   2.1096   2.1428   2.1926   2.3179   2.4050   2.5309   2.6266

          k = 0.1250-0.3750-0.3750 (132616 PWs)   bands (ev):

   -18.4781 -18.4184 -18.3658 -18.3652 -18.3608 -18.3565 -18.3556 -18.3542
   -18.3536 -18.3532 -18.3494 -18.3479 -18.3475 -18.3462 -18.3404 -18.3401
   -18.3359 -18.3343 -18.3216 -18.3178 -18.3034 -18.3006 -18.2990 -18.2916
   -18.2788 -18.2760 -18.2739 -18.2681 -18.2663 -18.2634 -18.2577 -18.2566
   -18.2522 -18.2507 -18.2473 -18.2428 -18.2395 -18.1671 -18.1575 -18.1571
   -18.1484 -18.1431 -18.1373 -18.0965 -18.0942 -18.0844 -18.0670 -18.0633
    -9.3790  -9.3304  -9.3089  -9.2216  -9.1873  -9.1364  -9.0927  -9.0502
    -9.0147  -8.9715  -8.9473  -8.8886  -8.8607  -8.8535  -8.8125  -8.8020
    -8.7569  -8.7318  -8.7151  -8.6648  -8.6150  -8.5633  -8.5394  -8.5059
    -5.2537  -5.2462  -5.2258  -5.1969  -5.1911  -5.1687  -5.1386  -5.1336
    -5.1327  -5.1276  -5.1225  -5.1111  -5.1007  -5.0839  -5.0729  -5.0711
    -5.0678  -5.0639  -5.0621  -5.0584  -5.0480  -4.9545  -4.9350  -4.9256
    -4.1922  -4.0251  -3.9508  -3.7492  -3.6249  -3.4157  -3.3752  -3.1612
    -0.7264  -0.6525  -0.6001  -0.4982  -0.3225  -0.2255  -0.1666  -0.1396
    -0.0375   0.0002   0.0339   0.1749   0.3518   0.3997   0.4566   0.4800
     0.5329   0.5629   0.5947   0.6020   0.6415   0.6852   0.7234   0.7478
     0.7745   0.8575   0.8983   0.9410   1.0048   1.0272   1.0509   1.0908
     1.1386   1.1843   1.2058   1.2533   1.2862   1.3087   1.3401   1.3686
     1.3895   1.4137   1.4575   1.4917   1.5210   1.5441   1.5887   1.6020
     1.6463   1.6609   1.6809   1.6881   1.7180   1.7394   1.7746   1.8009
     1.8421   1.8802   1.8894   1.9004   1.9474   1.9635   2.0119   2.0198
     2.0607   2.1099   2.1533   2.1843   2.3043   2.4260   2.5383   2.6107

          k = 0.3750 0.1250-0.3750 (132616 PWs)   bands (ev):

   -18.4781 -18.4184 -18.3659 -18.3651 -18.3608 -18.3565 -18.3556 -18.3541
   -18.3536 -18.3532 -18.3494 -18.3479 -18.3475 -18.3462 -18.3404 -18.3401
   -18.3359 -18.3343 -18.3216 -18.3178 -18.3034 -18.3006 -18.2990 -18.2916
   -18.2788 -18.2760 -18.2739 -18.2681 -18.2663 -18.2634 -18.2577 -18.2566
   -18.2522 -18.2507 -18.2473 -18.2428 -18.2395 -18.1671 -18.1575 -18.1571
   -18.1484 -18.1431 -18.1373 -18.0965 -18.0942 -18.0844 -18.0670 -18.0633
    -9.3770  -9.3161  -9.2943  -9.2579  -9.2115  -9.1332  -9.0720  -9.0382
    -9.0180  -8.9910  -8.9339  -8.8763  -8.8565  -8.8379  -8.8189  -8.8019
    -8.7838  -8.7434  -8.7004  -8.6605  -8.6168  -8.5659  -8.5399  -8.5041
    -5.2538  -5.2463  -5.2259  -5.1966  -5.1911  -5.1688  -5.1386  -5.1340
    -5.1326  -5.1276  -5.1222  -5.1111  -5.1008  -5.0838  -5.0728  -5.0713
    -5.0673  -5.0649  -5.0619  -5.0569  -5.0489  -4.9544  -4.9343  -4.9263
    -4.1805  -3.9763  -3.9517  -3.7443  -3.6713  -3.4351  -3.4062  -3.1765
    -0.6120  -0.5620  -0.5339  -0.4517  -0.2991  -0.2711  -0.2136  -0.1173
    -0.0656  -0.0061   0.0407   0.1760   0.3534   0.3941   0.4331   0.4508
     0.4816   0.5192   0.5671   0.5978   0.6483   0.6877   0.7036   0.7253
     0.8125   0.8359   0.8763   0.9264   0.9909   1.0181   1.0498   1.0820
     1.1226   1.1685   1.2176   1.2353   1.2724   1.2847   1.3409   1.3601
     1.3986   1.4253   1.4667   1.5095   1.5200   1.5696   1.5974   1.6223
     1.6359   1.6612   1.7028   1.7152   1.7398   1.7551   1.7714   1.7976
     1.8200   1.8487   1.8831   1.8996   1.9240   1.9564   2.0179   2.0277
     2.0480   2.0895   2.1211   2.2216   2.2857   2.4329   2.4682   2.6767

          k =-0.3750-0.1250-0.3750 (132616 PWs)   bands (ev):

   -18.4781 -18.4184 -18.3659 -18.3651 -18.3608 -18.3565 -18.3556 -18.3541
   -18.3536 -18.3532 -18.3494 -18.3479 -18.3475 -18.3462 -18.3404 -18.3401
   -18.3359 -18.3343 -18.3216 -18.3178 -18.3034 -18.3006 -18.2990 -18.2916
   -18.2788 -18.2760 -18.2739 -18.2681 -18.2663 -18.2634 -18.2577 -18.2566
   -18.2522 -18.2507 -18.2473 -18.2428 -18.2395 -18.1671 -18.1575 -18.1571
   -18.1484 -18.1431 -18.1373 -18.0965 -18.0942 -18.0844 -18.0670 -18.0633
    -9.3738  -9.3309  -9.2776  -9.2582  -9.2154  -9.1394  -9.0711  -9.0266
    -9.0189  -8.9938  -8.9357  -8.8758  -8.8591  -8.8406  -8.8216  -8.8007
    -8.7799  -8.7425  -8.6996  -8.6607  -8.6180  -8.5654  -8.5393  -8.5047
    -5.2538  -5.2464  -5.2258  -5.1966  -5.1911  -5.1688  -5.1386  -5.1341
    -5.1328  -5.1274  -5.1221  -5.1111  -5.1006  -5.0836  -5.0732  -5.0714
    -5.0680  -5.0648  -5.0619  -5.0567  -5.0486  -4.9544  -4.9342  -4.9263
    -4.1789  -3.9881  -3.9401  -3.7648  -3.6408  -3.4668  -3.3826  -3.1805
    -0.6025  -0.5392  -0.5213  -0.4516  -0.3507  -0.2863  -0.2123  -0.1425
    -0.0477   0.0289   0.0428   0.1640   0.3015   0.4082   0.4273   0.4688
     0.4845   0.5206   0.5721   0.6109   0.6442   0.6921   0.7125   0.7463
     0.8086   0.8360   0.8726   0.9273   0.9781   1.0278   1.0570   1.0831
     1.1096   1.1698   1.2134   1.2569   1.2621   1.2930   1.3477   1.3662
     1.3887   1.4211   1.4565   1.4860   1.5238   1.5727   1.5923   1.6149
     1.6402   1.6646   1.6993   1.7235   1.7313   1.7513   1.7853   1.8053
     1.8289   1.8506   1.8764   1.9162   1.9221   1.9578   1.9722   2.0078
     2.0721   2.0985   2.1406   2.1974   2.2982   2.4128   2.4756   2.6823

          k = 0.3750-0.1250 0.3750 (132616 PWs)   bands (ev):

   -18.4781 -18.4184 -18.3659 -18.3651 -18.3608 -18.3565 -18.3556 -18.3541
   -18.3536 -18.3532 -18.3494 -18.3479 -18.3475 -18.3462 -18.3404 -18.3401
   -18.3359 -18.3343 -18.3216 -18.3178 -18.3034 -18.3006 -18.2990 -18.2916
   -18.2788 -18.2760 -18.2739 -18.2681 -18.2663 -18.2634 -18.2577 -18.2566
   -18.2522 -18.2507 -18.2473 -18.2428 -18.2395 -18.1671 -18.1575 -18.1571
   -18.1484 -18.1431 -18.1373 -18.0965 -18.0942 -18.0844 -18.0670 -18.0633
    -9.3717  -9.3318  -9.2885  -9.2436  -9.2227  -9.1358  -9.0656  -9.0278
    -9.0194  -9.0028  -8.9313  -8.8793  -8.8538  -8.8431  -8.8207  -8.8021
    -8.7793  -8.7433  -8.6995  -8.6598  -8.6167  -8.5664  -8.5400  -8.5044
    -5.2537  -5.2464  -5.2258  -5.1966  -5.1911  -5.1688  -5.1385  -5.1341
    -5.1327  -5.1275  -5.1222  -5.1111  -5.1010  -5.0839  -5.0728  -5.0715
    -5.0674  -5.0648  -5.0619  -5.0569  -5.0488  -4.9544  -4.9342  -4.9263
    -4.1769  -3.9828  -3.9510  -3.7524  -3.6559  -3.4587  -3.3853  -3.1785
    -0.6128  -0.5572  -0.5375  -0.4506  -0.3383  -0.2545  -0.2067  -0.1376
    -0.0357   0.0336   0.0625   0.1424   0.2978   0.3970   0.4325   0.4620
     0.4982   0.5285   0.5512   0.6260   0.6392   0.6688   0.7063   0.7361
     0.8111   0.8584   0.8715   0.9134   0.9948   1.0120   1.0414   1.0702
     1.1299   1.1633   1.2220   1.2384   1.2599   1.2949   1.3222   1.3869
     1.4016   1.4359   1.4656   1.4800   1.5101   1.5606   1.6098   1.6226
     1.6441   1.6662   1.6950   1.7262   1.7476   1.7612   1.7800   1.8042
     1.8213   1.8506   1.8816   1.8944   1.9321   1.9464   1.9932   2.0130
     2.0681   2.0858   2.1396   2.1963   2.2871   2.4218   2.4811   2.6898

          k =-0.3750 0.1250 0.3750 (132616 PWs)   bands (ev):

   -18.4781 -18.4184 -18.3659 -18.3651 -18.3608 -18.3565 -18.3556 -18.3541
   -18.3536 -18.3532 -18.3494 -18.3479 -18.3475 -18.3462 -18.3404 -18.3401
   -18.3359 -18.3343 -18.3216 -18.3178 -18.3034 -18.3006 -18.2990 -18.2916
   -18.2788 -18.2760 -18.2739 -18.2681 -18.2663 -18.2634 -18.2577 -18.2566
   -18.2522 -18.2507 -18.2473 -18.2428 -18.2395 -18.1671 -18.1575 -18.1571
   -18.1484 -18.1431 -18.1373 -18.0965 -18.0942 -18.0844 -18.0670 -18.0633
    -9.3748  -9.3197  -9.2980  -9.2513  -9.2137  -9.1322  -9.0710  -9.0360
    -9.0202  -8.9913  -8.9356  -8.8767  -8.8547  -8.8399  -8.8153  -8.8085
    -8.7798  -8.7426  -8.7000  -8.6615  -8.6173  -8.5650  -8.5399  -8.5045
    -5.2537  -5.2463  -5.2259  -5.1966  -5.1911  -5.1688  -5.1387  -5.1340
    -5.1327  -5.1273  -5.1221  -5.1111  -5.1008  -5.0835  -5.0734  -5.0713
    -5.0679  -5.0648  -5.0619  -5.0568  -5.0485  -4.9544  -4.9343  -4.9263
    -4.1762  -3.9774  -3.9566  -3.7654  -3.6426  -3.4386  -3.4055  -3.1799
    -0.6019  -0.5426  -0.5342  -0.4562  -0.3245  -0.2797  -0.2190  -0.1110
    -0.0619  -0.0259   0.0357   0.1835   0.3542   0.4109   0.4399   0.4694
     0.4835   0.5401   0.5502   0.5740   0.6273   0.6886   0.7236   0.7382
     0.7999   0.8364   0.8765   0.9202   0.9920   1.0322   1.0619   1.0880
     1.1155   1.1712   1.1951   1.2400   1.2575   1.3187   1.3310   1.3737
     1.3940   1.4219   1.4614   1.4776   1.5192   1.5587   1.5985   1.6155
     1.6515   1.6616   1.7120   1.7296   1.7499   1.7544   1.7806   1.7945
     1.8116   1.8579   1.8652   1.8894   1.9376   1.9744   1.9910   2.0368
     2.0504   2.0707   2.1231   2.2153   2.2874   2.4123   2.4872   2.6838

          k = 0.3750-0.3750 0.1250 (132616 PWs)   bands (ev):

   -18.4781 -18.4184 -18.3658 -18.3652 -18.3608 -18.3565 -18.3556 -18.3542
   -18.3536 -18.3532 -18.3494 -18.3479 -18.3475 -18.3462 -18.3404 -18.3401
   -18.3359 -18.3343 -18.3216 -18.3178 -18.3034 -18.3006 -18.2990 -18.2916
   -18.2787 -18.2760 -18.2739 -18.2681 -18.2663 -18.2634 -18.2577 -18.2566
   -18.2522 -18.2507 -18.2473 -18.2428 -18.2395 -18.1671 -18.1575 -18.1571
   -18.1484 -18.1431 -18.1373 -18.0965 -18.0942 -18.0844 -18.0670 -18.0633
    -9.3771  -9.3444  -9.3004  -9.2127  -9.1849  -9.1432  -9.0921  -9.0422
    -9.0176  -8.9891  -8.9395  -8.8795  -8.8583  -8.8420  -8.8365  -8.8062
    -8.7517  -8.7340  -8.7096  -8.6652  -8.6078  -8.5692  -8.5474  -8.4988
    -5.2537  -5.2464  -5.2258  -5.1966  -5.1910  -5.1688  -5.1386  -5.1341
    -5.1330  -5.1275  -5.1220  -5.1112  -5.1002  -5.0838  -5.0751  -5.0701
    -5.0671  -5.0632  -5.0615  -5.0587  -5.0483  -4.9541  -4.9341  -4.9267
    -4.1786  -4.0339  -3.8874  -3.7139  -3.6721  -3.5087  -3.3780  -3.1690
    -0.6744  -0.6233  -0.5718  -0.4108  -0.3144  -0.2510  -0.1830  -0.0828
    -0.0517   0.0292   0.0669   0.1397   0.3457   0.4011   0.4354   0.4684
     0.5156   0.5468   0.5662   0.6039   0.6412   0.6780   0.7012   0.7182
     0.7863   0.8522   0.9305   0.9543   1.0036   1.0616   1.0772   1.1226
     1.1385   1.1559   1.2069   1.2160   1.2509   1.2902   1.3275   1.3666
     1.3783   1.4136   1.4443   1.4682   1.5366   1.5545   1.5796   1.6139
     1.6463   1.6488   1.6995   1.7071   1.7271   1.7593   1.7848   1.8011
     1.8228   1.8382   1.8726   1.9024   1.9332   1.9622   1.9948   2.0201
     2.0674   2.0855   2.1405   2.1962   2.2620   2.3886   2.4599   2.5733

          k =-0.3750-0.3750-0.1250 (132616 PWs)   bands (ev):

   -18.4781 -18.4184 -18.3658 -18.3652 -18.3608 -18.3565 -18.3556 -18.3542
   -18.3536 -18.3532 -18.3494 -18.3479 -18.3475 -18.3462 -18.3404 -18.3401
   -18.3359 -18.3343 -18.3216 -18.3178 -18.3034 -18.3006 -18.2990 -18.2916
   -18.2787 -18.2760 -18.2739 -18.2681 -18.2663 -18.2634 -18.2577 -18.2566
   -18.2522 -18.2507 -18.2473 -18.2428 -18.2395 -18.1671 -18.1575 -18.1571
   -18.1484 -18.1431 -18.1373 -18.0965 -18.0942 -18.0844 -18.0670 -18.0633
    -9.3820  -9.3308  -9.3090  -9.2188  -9.1730  -9.1468  -9.0981  -9.0423
    -9.0174  -8.9812  -8.9442  -8.8762  -8.8641  -8.8416  -8.8325  -8.8073
    -8.7522  -8.7330  -8.7101  -8.6654  -8.6098  -8.5681  -8.5467  -8.4990
    -5.2538  -5.2464  -5.2258  -5.1965  -5.1909  -5.1688  -5.1387  -5.1342
    -5.1330  -5.1275  -5.1219  -5.1112  -5.0998  -5.0833  -5.0754  -5.0701
    -5.0677  -5.0635  -5.0613  -5.0586  -5.0481  -4.9541  -4.9341  -4.9266
    -4.1875  -3.9960  -3.9236  -3.7321  -3.6536  -3.4531  -3.4304  -3.1661
    -0.6460  -0.6292  -0.5608  -0.4270  -0.3356  -0.2438  -0.1645  -0.1032
    -0.0750   0.0095   0.0913   0.1256   0.3595   0.4000   0.4211   0.4644
     0.5304   0.5492   0.5795   0.6074   0.6436   0.6638   0.7005   0.7518
     0.8020   0.8378   0.8914   0.9736   1.0364   1.0545   1.0834   1.1018
     1.1189   1.1803   1.2157   1.2347   1.2612   1.2930   1.3189   1.3334
     1.3788   1.4022   1.4458   1.4758   1.5275   1.5752   1.5884   1.6129
     1.6318   1.6575   1.6851   1.7063   1.7248   1.7566   1.7772   1.7973
     1.8089   1.8416   1.8721   1.9062   1.9357   1.9508   1.9871   2.0459
     2.0696   2.0857   2.1554   2.1909   2.2650   2.3668   2.4841   2.5513

          k = 0.3750 0.3750-0.1250 (132616 PWs)   bands (ev):

   -18.4781 -18.4184 -18.3658 -18.3652 -18.3608 -18.3565 -18.3556 -18.3542
   -18.3536 -18.3532 -18.3494 -18.3479 -18.3475 -18.3462 -18.3404 -18.3401
   -18.3359 -18.3343 -18.3216 -18.3178 -18.3034 -18.3006 -18.2990 -18.2916
   -18.2787 -18.2760 -18.2739 -18.2681 -18.2663 -18.2634 -18.2577 -18.2566
   -18.2522 -18.2507 -18.2473 -18.2428 -18.2395 -18.1671 -18.1575 -18.1571
   -18.1484 -18.1431 -18.1373 -18.0965 -18.0942 -18.0844 -18.0670 -18.0633
    -9.3831  -9.3293  -9.3071  -9.2266  -9.1653  -9.1445  -9.1000  -9.0464
    -9.0200  -8.9809  -8.9403  -8.8790  -8.8611  -8.8426  -8.8267  -8.8100
    -8.7534  -8.7341  -8.7111  -8.6651  -8.6085  -8.5689  -8.5469  -8.4987
    -5.2538  -5.2463  -5.2259  -5.1965  -5.1910  -5.1688  -5.1387  -5.1340
    -5.1330  -5.1276  -5.1220  -5.1112  -5.1000  -5.0837  -5.0749  -5.0699
    -5.0670  -5.0633  -5.0615  -5.0588  -5.0484  -4.9541  -4.9341  -4.9266
    -4.1888  -3.9956  -3.9217  -3.7146  -3.6752  -3.4533  -3.4298  -3.1629
    -0.6739  -0.6211  -0.5725  -0.4201  -0.3105  -0.2188  -0.1574  -0.1178
    -0.0805   0.0127   0.0872   0.1303   0.3582   0.4063   0.4195   0.4749
     0.5197   0.5396   0.5724   0.6095   0.6364   0.6720   0.6988   0.7311
     0.7909   0.8464   0.9120   0.9703   1.0305   1.0508   1.0708   1.1013
     1.1267   1.1572   1.2188   1.2289   1.2706   1.2755   1.3270   1.3549
     1.3862   1.4317   1.4413   1.4823   1.5258   1.5619   1.5754   1.6054
     1.6498   1.6629   1.6765   1.7176   1.7285   1.7398   1.7739   1.7996
     1.8251   1.8452   1.8542   1.8959   1.9390   1.9562   1.9964   2.0454
     2.0680   2.0960   2.1439   2.1949   2.2400   2.4045   2.4744   2.5473

          k =-0.3750 0.3750 0.1250 (132616 PWs)   bands (ev):

   -18.4781 -18.4184 -18.3658 -18.3652 -18.3608 -18.3565 -18.3556 -18.3542
   -18.3536 -18.3532 -18.3494 -18.3479 -18.3475 -18.3462 -18.3404 -18.3401
   -18.3359 -18.3343 -18.3216 -18.3178 -18.3034 -18.3006 -18.2990 -18.2916
   -18.2787 -18.2760 -18.2739 -18.2681 -18.2663 -18.2634 -18.2577 -18.2566
   -18.2522 -18.2507 -18.2473 -18.2428 -18.2395 -18.1671 -18.1575 -18.1571
   -18.1484 -18.1431 -18.1373 -18.0965 -18.0942 -18.0844 -18.0670 -18.0633
    -9.3782  -9.3439  -9.2975  -9.2225  -9.1733  -9.1421  -9.1005  -9.0424
    -9.0205  -8.9780  -8.9463  -8.8770  -8.8596  -8.8447  -8.8277  -8.8107
    -8.7520  -8.7328  -8.7102  -8.6677  -8.6084  -8.5676  -8.5472  -8.4990
    -5.2537  -5.2464  -5.2259  -5.1965  -5.1910  -5.1688  -5.1388  -5.1339
    -5.1331  -5.1274  -5.1220  -5.1113  -5.1000  -5.0833  -5.0754  -5.0701
    -5.0676  -5.0634  -5.0613  -5.0586  -5.0481  -4.9541  -4.9341  -4.9266
    -4.1778  -4.0338  -3.8905  -3.7308  -3.6477  -3.5080  -3.3832  -3.1703
    -0.6532  -0.6215  -0.5749  -0.4283  -0.2904  -0.2589  -0.2011  -0.1028
    -0.0484   0.0271   0.0503   0.1517   0.3449   0.4144   0.4259   0.4856
     0.5169   0.5358   0.5918   0.6005   0.6447   0.6621   0.7068   0.7278
     0.7757   0.8497   0.9298   0.9745   0.9927   1.0508   1.0779   1.1172
     1.1509   1.1720   1.2025   1.2386   1.2648   1.2958   1.3142   1.3286
     1.3587   1.4255   1.4415   1.4868   1.5395   1.5764   1.5890   1.6053
     1.6330   1.6493   1.6750   1.7019   1.7412   1.7581   1.7731   1.8016
     1.8205   1.8410   1.8488   1.9009   1.9433   1.9740   1.9937   2.0125
     2.0553   2.0999   2.1525   2.1861   2.2954   2.3534   2.4617   2.5723

          k =-0.3750-0.3750 0.3750 (132612 PWs)   bands (ev):

   -18.4781 -18.4184 -18.3658 -18.3652 -18.3608 -18.3565 -18.3556 -18.3542
   -18.3536 -18.3532 -18.3494 -18.3479 -18.3475 -18.3462 -18.3404 -18.3401
   -18.3359 -18.3343 -18.3216 -18.3178 -18.3034 -18.3006 -18.2990 -18.2916
   -18.2788 -18.2760 -18.2739 -18.2681 -18.2663 -18.2634 -18.2577 -18.2566
   -18.2522 -18.2507 -18.2473 -18.2428 -18.2395 -18.1671 -18.1575 -18.1571
   -18.1484 -18.1431 -18.1373 -18.0965 -18.0942 -18.0844 -18.0670 -18.0633
    -9.3623  -9.3199  -9.2958  -9.2582  -9.1949  -9.1557  -9.1063  -9.0365
    -9.0205  -8.9781  -8.9322  -8.8773  -8.8510  -8.8371  -8.8163  -8.8066
    -8.7566  -8.7345  -8.7151  -8.6609  -8.6166  -8.5688  -8.5414  -8.5068
    -5.2538  -5.2462  -5.2258  -5.1967  -5.1912  -5.1689  -5.1386  -5.1339
    -5.1328  -5.1275  -5.1222  -5.1112  -5.1008  -5.0843  -5.0726  -5.0708
    -5.0673  -5.0635  -5.0622  -5.0581  -5.0482  -4.9543  -4.9343  -4.9263
    -4.0734  -3.8937  -3.8526  -3.8025  -3.6305  -3.5882  -3.5537  -3.3419
    -0.4866  -0.4103  -0.3392  -0.2820  -0.1999  -0.1400  -0.0817  -0.0477
    -0.0382   0.0223   0.1246   0.2052   0.3009   0.3528   0.3966   0.4071
     0.4671   0.4734   0.5170   0.5725   0.6032   0.6182   0.6580   0.6892
     0.7739   0.8548   0.8792   0.9366   0.9646   0.9989   1.0218   1.0457
     1.0932   1.1235   1.1424   1.1730   1.1989   1.2312   1.3023   1.3251
     1.3403   1.3762   1.4170   1.4609   1.5185   1.5683   1.6081   1.6442
     1.6587   1.6754   1.7016   1.7477   1.7528   1.7724   1.8059   1.8303
     1.8416   1.8539   1.8808   1.9170   1.9264   1.9564   2.0005   2.0224
     2.0471   2.0668   2.0980   2.1219   2.1483   2.2103   2.2721   2.3576

          k =-0.3750 0.3750-0.3750 (132612 PWs)   bands (ev):

   -18.4781 -18.4184 -18.3658 -18.3652 -18.3608 -18.3565 -18.3556 -18.3542
   -18.3536 -18.3532 -18.3494 -18.3479 -18.3475 -18.3462 -18.3404 -18.3401
   -18.3359 -18.3343 -18.3216 -18.3178 -18.3034 -18.3006 -18.2990 -18.2916
   -18.2788 -18.2760 -18.2739 -18.2681 -18.2663 -18.2634 -18.2577 -18.2566
   -18.2522 -18.2507 -18.2473 -18.2428 -18.2395 -18.1671 -18.1575 -18.1571
   -18.1484 -18.1431 -18.1373 -18.0965 -18.0942 -18.0844 -18.0670 -18.0633
    -9.3545  -9.3293  -9.3056  -9.2335  -9.2137  -9.1536  -9.1000  -9.0341
    -9.0196  -8.9855  -8.9298  -8.8795  -8.8491  -8.8396  -8.8191  -8.8046
    -8.7546  -8.7355  -8.7138  -8.6594  -8.6168  -8.5692  -8.5418  -8.5068
    -5.2538  -5.2463  -5.2258  -5.1967  -5.1912  -5.1689  -5.1384  -5.1341
    -5.1328  -5.1275  -5.1222  -5.1112  -5.1009  -5.0843  -5.0727  -5.0709
    -5.0674  -5.0634  -5.0622  -5.0581  -5.0480  -4.9543  -4.9343  -4.9263
    -4.0615  -3.9230  -3.8646  -3.7511  -3.6752  -3.5886  -3.5238  -3.3484
    -0.4798  -0.4152  -0.3429  -0.2720  -0.2383  -0.1535  -0.1028  -0.0456
     0.0258   0.0695   0.1222   0.1926   0.2890   0.3202   0.3974   0.4204
     0.4672   0.4956   0.5149   0.5354   0.6051   0.6126   0.6736   0.6913
     0.7827   0.8518   0.8714   0.9399   0.9702   0.9953   1.0113   1.0601
     1.0790   1.1010   1.1560   1.1755   1.2276   1.2464   1.2772   1.3079
     1.3438   1.3715   1.3965   1.4735   1.5266   1.5777   1.5974   1.6315
     1.6622   1.6944   1.7193   1.7405   1.7713   1.7879   1.7959   1.8323
     1.8364   1.8580   1.8753   1.8983   1.9292   1.9574   1.9773   2.0258
     2.0441   2.0638   2.1048   2.1245   2.1476   2.1934   2.2861   2.3699

          k = 0.3750-0.3750-0.3750 (132612 PWs)   bands (ev):

   -18.4781 -18.4184 -18.3658 -18.3652 -18.3608 -18.3565 -18.3556 -18.3542
   -18.3536 -18.3532 -18.3494 -18.3479 -18.3475 -18.3462 -18.3404 -18.3401
   -18.3359 -18.3343 -18.3216 -18.3178 -18.3034 -18.3006 -18.2990 -18.2916
   -18.2788 -18.2760 -18.2739 -18.2681 -18.2663 -18.2634 -18.2577 -18.2566
   -18.2522 -18.2507 -18.2473 -18.2428 -18.2395 -18.1671 -18.1575 -18.1571
   -18.1484 -18.1431 -18.1373 -18.0965 -18.0942 -18.0844 -18.0670 -18.0633
    -9.3570  -9.3293  -9.2963  -9.2519  -9.1993  -9.1522  -9.1061  -9.0358
    -9.0213  -8.9775  -8.9344  -8.8776  -8.8493  -8.8382  -8.8149  -8.8096
    -8.7546  -8.7340  -8.7144  -8.6622  -8.6171  -8.5678  -8.5414  -8.5071
    -5.2538  -5.2463  -5.2258  -5.1967  -5.1912  -5.1689  -5.1387  -5.1339
    -5.1328  -5.1273  -5.1222  -5.1113  -5.1008  -5.0839  -5.0729  -5.0709
    -5.0679  -5.0637  -5.0619  -5.0580  -5.0478  -4.9543  -4.9343  -4.9263
    -4.0573  -3.9314  -3.8658  -3.7585  -3.6601  -3.5657  -3.5459  -3.3520
    -0.4683  -0.3872  -0.3244  -0.3029  -0.2134  -0.1671  -0.1050  -0.0628
    -0.0288   0.0285   0.0812   0.2184   0.3239   0.3944   0.4106   0.4274
     0.4625   0.4805   0.5340   0.5503   0.5696   0.6131   0.6698   0.6881
     0.7875   0.8352   0.8894   0.9059   0.9628   1.0187   1.0375   1.0561
     1.0797   1.1265   1.1507   1.1683   1.2167   1.2429   1.2804   1.3102
     1.3418   1.3750   1.3888   1.4500   1.5285   1.5701   1.6046   1.6531
     1.6634   1.6771   1.7121   1.7517   1.7627   1.7824   1.8165   1.8230
     1.8314   1.8554   1.8723   1.9163   1.9456   1.9645   1.9762   1.9807
     2.0227   2.0596   2.1164   2.1254   2.1487   2.2217   2.3027   2.3437

     highest occupied level (ev):     3.0806

!    total energy              =   -2256.27796115 Ry
     estimated scf accuracy    <          5.7E-11 Ry

     The total energy is the sum of the following terms:
     one-electron contribution =    -987.38190977 Ry
     hartree contribution      =     621.73441457 Ry
     xc contribution           =    -647.48174482 Ry
     ewald contribution        =   -1243.14872113 Ry

     convergence has been achieved in  15 iterations

     Forces acting on atoms (cartesian axes, Ry/au):

     atom    1 type  1   force =     0.00573817   -0.00174635   -0.00097610
     atom    2 type  2   force =     0.00291062    0.00890864   -0.00466662
     atom    3 type  3   force =    -0.00451602    0.00060574   -0.00162913
     atom    4 type  3   force =     0.00013998   -0.00456632    0.00366913
     atom    5 type  3   force =     0.00194447   -0.00460341   -0.00620804
     atom    6 type  1   force =     0.00154502    0.00096980    0.00277461
     atom    7 type  2   force =    -0.00932946   -0.00716008    0.01594402
     atom    8 type  3   force =    -0.00224031    0.01290272    0.00806647
     atom    9 type  3   force =     0.00046593   -0.00249233    0.00368928
     atom   10 type  3   force =     0.00319893   -0.00187142   -0.00971077
     atom   11 type  1   force =     0.00294218   -0.00372097   -0.00847225
     atom   12 type  2   force =     0.00529968   -0.00880759   -0.00341809
     atom   13 type  3   force =    -0.00183140   -0.00316645    0.00404100
     atom   14 type  3   force =     0.03339318   -0.02077077   -0.00078177
     atom   15 type  3   force =    -0.00392841    0.01681802   -0.00074059
     atom   16 type  1   force =    -0.00393681    0.00315988    0.00216806
     atom   17 type  2   force =    -0.00566719    0.00972983    0.00898200
     atom   18 type  3   force =    -0.01845614    0.00152704    0.00081750
     atom   19 type  3   force =     0.00244755    0.00214452    0.01236634
     atom   20 type  3   force =    -0.00679175   -0.00399836   -0.00984976
     atom   21 type  1   force =    -0.00859562    0.00245870    0.00663812
     atom   22 type  2   force =     0.01150931    0.00843630    0.00583987
     atom   23 type  3   force =     0.00828689   -0.00546307   -0.00569847
     atom   24 type  3   force =    -0.00050866   -0.00081369   -0.00799279
     atom   25 type  3   force =    -0.00004429   -0.02144641    0.00429365
     atom   26 type  1   force =    -0.00037384   -0.00191215   -0.00133529
     atom   27 type  2   force =     0.01097694    0.00990681   -0.01271113
     atom   28 type  3   force =     0.00546556    0.00074704   -0.00094081
     atom   29 type  3   force =    -0.00628651   -0.00149673    0.00457441
     atom   30 type  3   force =    -0.00100568    0.00172961    0.00615672
     atom   31 type  1   force =    -0.02144941    0.02055217    0.00063852
     atom   32 type  2   force =    -0.00980065   -0.02737483   -0.00285672
     atom   33 type  3   force =    -0.01118832   -0.00349420   -0.00989443
     atom   34 type  3   force =     0.00677594    0.00096664    0.00413773
     atom   35 type  3   force =     0.00039593    0.04743355   -0.00020737
     atom   36 type  1   force =     0.00021416    0.00014404   -0.00006634
     atom   37 type  2   force =    -0.00083182   -0.01012631    0.00120121
     atom   38 type  3   force =     0.00603972   -0.00162576    0.00113110
     atom   39 type  3   force =     0.00900136   -0.01548029   -0.00261874
     atom   40 type  3   force =    -0.00190925    0.00299641   -0.00635453

     Total force =     0.101963     Total SCF correction =     0.000036


     Computing stress (Cartesian axis) and pressure

          total   stress  (Ry/bohr**3)                   (kbar)     P=       -7.67
  -0.00004843  -0.00000748   0.00000144           -7.12       -1.10        0.21
  -0.00000748  -0.00004716   0.00000300           -1.10       -6.94        0.44
   0.00000144   0.00000300  -0.00006089            0.21        0.44       -8.96

 
     init_run     :     20.03s CPU     17.05s WALL (       1 calls)
     electrons    :    204.39s CPU    216.54s WALL (       1 calls)
     forces       :      8.83s CPU      3.97s WALL (       1 calls)
     stress       :     31.57s CPU     31.39s WALL (       1 calls)

     Called by init_run:
     wfcinit      :     12.18s CPU     13.98s WALL (       1 calls)
                                       13.98s GPU  (       1 calls)
     potinit      :      4.59s CPU      1.41s WALL (       1 calls)
     hinit0       :      2.71s CPU      0.98s WALL (       1 calls)

     Called by electrons:
     c_bands      :    123.34s CPU    173.96s WALL (      16 calls)
     sum_band     :     22.00s CPU     21.23s WALL (      16 calls)
                                       21.23s GPU  (      16 calls)
     v_of_rho     :     54.79s CPU     16.60s WALL (      16 calls)
     mix_rho      :      6.43s CPU      5.07s WALL (      16 calls)

     Called by c_bands:
     init_us_2    :      2.14s CPU      2.94s WALL (     280 calls)
                                        2.93s GPU  (     280 calls)
     cegterg      :     82.81s CPU    130.72s WALL (     128 calls)

     Called by *egterg:
     cdiaghg      :     13.66s CPU     26.08s WALL (     642 calls)
                                       26.04s GPU  (     642 calls)
     h_psi        :     56.17s CPU     75.57s WALL (     658 calls)
                                       75.11s GPU  (     658 calls)
     g_psi        :      0.00s CPU      0.37s WALL (     522 calls)
                                        0.37s GPU  (     522 calls)

     Called by h_psi:
     h_psi:calbec :      0.30s CPU     10.15s WALL (     658 calls)
                                       10.15s GPU  (     658 calls)
     vloc_psi     :     40.70s CPU     55.22s WALL (     658 calls)
                                       54.28s GPU  (     658 calls)
     add_vuspsi   :      0.33s CPU     10.11s WALL (     658 calls)
                                       10.10s GPU  (     658 calls)

     General routines
     calbec       :      0.29s CPU      0.42s WALL (     698 calls)
     fft          :     25.52s CPU      6.53s WALL (     185 calls)
                                        0.00s GPU  (       6 calls)
     ffts         :      2.66s CPU      0.68s WALL (      16 calls)
     fftw         :      0.66s CPU     63.79s WALL (   10628 calls)
                                       47.66s GPU  (   10628 calls)
 
     Parallel routines
 
     PWSCF        :   4m25.63s CPU   4m29.85s WALL

 
   This run was terminated on:  19:11:12  22Apr2021            

=------------------------------------------------------------------------------=
   JOB DONE.
=------------------------------------------------------------------------------=
