
     Program PWSCF v.6.7MaX starts on 23Apr2021 at  0: 1:44 

     This program is part of the open-source Quantum ESPRESSO suite
     for quantum simulation of materials; please cite
         "P. Giannozzi et al., J. Phys.:Condens. Matter 21 395502 (2009);
         "P. Giannozzi et al., J. Phys.:Condens. Matter 29 465901 (2017);
         "P. Giannozzi et al., J. Chem. Phys. 152 154105 (2020);
          URL http://www.quantum-espresso.org", 
     in publications or presentations arising from this work. More details at
     http://www.quantum-espresso.org/quote

     Parallel version (MPI & OpenMP), running on      16 processor cores
     Number of MPI processes:                 4
     Threads/MPI process:                     4

     MPI processes distributed on     1 nodes
     K-points division:     npool     =       4
     Reading input from ESP_73.pwi
Warning: card &CELL ignored
Warning: card / ignored

     Current dimensions of program PWSCF are:
     Max number of different atomic species (ntypx) = 10
     Max number of k-points (npk) =  40000
     Max angular momentum in pseudopotentials (lmaxx) =  3
     Message from routine read_pp_mesh:
     mesh size missing, using the one in header
     Message from routine read_pp_mesh:
     mesh size missing, using the one in header
     Message from routine read_pp_mesh:
     mesh size missing, using the one in header

     Subspace diagonalization in iterative solution of the eigenvalue problem:
     a serial algorithm will be used

 
     G-vector sticks info
     --------------------
     sticks:   dense  smooth     PW     G-vecs:    dense   smooth      PW
     Sum       12589   12589   3289              1061107  1061107  140905
 
     Using Slab Decomposition
 


     bravais-lattice index     =            0
     lattice parameter (alat)  =      23.7585  a.u.
     unit-cell volume          =   13410.8736 (a.u.)^3
     number of atoms/cell      =           40
     number of atomic types    =            3
     number of electrons       =       352.00
     number of Kohn-Sham states=          176
     kinetic-energy cutoff     =      70.0000  Ry
     charge density cutoff     =     280.0000  Ry
     scf convergence threshold =      1.0E-10
     mixing beta               =       0.7000
     number of iterations used =            8  plain     mixing
     Exchange-correlation= PBESOL
                           (   1   4  10   8   0   0   0)

     GPU acceleration is ACTIVE.


     celldm(1)=  23.758500  celldm(2)=   0.000000  celldm(3)=   0.000000
     celldm(4)=   0.000000  celldm(5)=   0.000000  celldm(6)=   0.000000

     crystal axes: (cart. coord. in units of alat)
               a(1) = (   1.000000   0.000000   0.000000 )  
               a(2) = (   0.000000   1.000000   0.000000 )  
               a(3) = (   0.000000   0.000000   1.000000 )  

     reciprocal axes: (cart. coord. in units 2 pi/alat)
               b(1) = (  1.000000  0.000000  0.000000 )  
               b(2) = (  0.000000  1.000000  0.000000 )  
               b(3) = (  0.000000  0.000000  1.000000 )  


     PseudoPot. # 1 for Cs read from file:
     /m100/home/userexternal/lmonacel/espresso/pseudo/Cs-nc-pbesol.upf
     MD5 check sum: 9d2f2206a14dc5b3b3f3fbfae186bed4
     Pseudo is Norm-conserving + core correction, Zval =  9.0
     Generated using ONCVPSP code by D. R. Hamann
     Using radial grid of 2384 points,  8 beta functions with: 
                l(1) =   0
                l(2) =   0
                l(3) =   1
                l(4) =   1
                l(5) =   2
                l(6) =   2
                l(7) =   3
                l(8) =   3

     PseudoPot. # 2 for Sn read from file:
     /m100/home/userexternal/lmonacel/espresso/pseudo/Sn-nc-pbesol.upf
     MD5 check sum: c2995d571af40102bfea7461443d92cf
     Pseudo is Norm-conserving + core correction, Zval = 14.0
     Generated using ONCVPSP code by D. R. Hamann
     Using radial grid of 1628 points,  6 beta functions with: 
                l(1) =   0
                l(2) =   0
                l(3) =   1
                l(4) =   1
                l(5) =   2
                l(6) =   2

     PseudoPot. # 3 for I  read from file:
     /m100/home/userexternal/lmonacel/espresso/pseudo/I-nc-pbesol.upf
     MD5 check sum: 80ed5ceb2eb9c553cfb6760a299d9c5b
     Pseudo is Norm-conserving + core correction, Zval =  7.0
     Generated using ONCVPSP code by D. R. Hamann
     Using radial grid of 1182 points,  6 beta functions with: 
                l(1) =   0
                l(2) =   0
                l(3) =   1
                l(4) =   1
                l(5) =   2
                l(6) =   2

     atomic species   valence    mass     pseudopotential
        Cs             9.00   132.90545     Cs( 1.00)
        Sn            14.00   118.71000     Sn( 1.00)
        I              7.00   126.90447     I ( 1.00)

     No symmetry found



   Cartesian axes

     site n.     atom                  positions (alat units)
         1           Cs  tau(   1) = (   0.2384601   0.2483791   0.2448035  )
         2           Sn  tau(   2) = (   0.0059895  -0.0028709  -0.0117091  )
         3           I   tau(   3) = (   0.2570056  -0.0103545   0.0011414  )
         4           I   tau(   4) = (   0.0093157   0.0073848   0.2504347  )
         5           I   tau(   5) = (   0.0214875   0.2533126   0.0511321  )
         6           Cs  tau(   6) = (   0.2415710   0.2282937   0.7362485  )
         7           Sn  tau(   7) = (  -0.0023762   0.0026484   0.4794450  )
         8           I   tau(   8) = (   0.2553392   0.0014023   0.4793351  )
         9           I   tau(   9) = (   0.0226529   0.0031102   0.7520103  )
        10           I   tau(  10) = (   0.0050332   0.2662788   0.4774639  )
        11           Cs  tau(  11) = (   0.2318876   0.7230087   0.2413247  )
        12           Sn  tau(  12) = (  -0.0030009   0.4820801  -0.0003930  )
        13           I   tau(  13) = (   0.2596150   0.5253068   0.0105443  )
        14           I   tau(  14) = (   0.0159855   0.5582493   0.2459437  )
        15           I   tau(  15) = (  -0.0457693   0.7488671  -0.0025594  )
        16           Cs  tau(  16) = (   0.2378062   0.7267464   0.7541754  )
        17           Sn  tau(  17) = (   0.0018522   0.5062047   0.5104455  )
        18           I   tau(  18) = (   0.2512385   0.5022235   0.5191903  )
        19           I   tau(  19) = (  -0.0122062   0.4741997   0.7580402  )
        20           I   tau(  20) = (  -0.0111508   0.7591123   0.5314126  )
        21           Cs  tau(  21) = (   0.7355420   0.2458636   0.2525818  )
        22           Sn  tau(  22) = (   0.5003618   0.0028197  -0.0076248  )
        23           I   tau(  23) = (   0.7565464   0.0332595  -0.0150339  )
        24           I   tau(  24) = (   0.5243610   0.0102828   0.2612062  )
        25           I   tau(  25) = (   0.4561473   0.2419861  -0.0321402  )
        26           Cs  tau(  26) = (   0.7397085   0.2357440   0.7501580  )
        27           Sn  tau(  27) = (   0.5000569  -0.0021727   0.5061509  )
        28           I   tau(  28) = (   0.7530264  -0.0091497   0.4929843  )
        29           I   tau(  29) = (   0.4993645  -0.0239971   0.7571479  )
        30           I   tau(  30) = (   0.5070132   0.2651353   0.4980720  )
        31           Cs  tau(  31) = (   0.7131578   0.7601940   0.2498942  )
        32           Sn  tau(  32) = (   0.5121389   0.4977800  -0.0013612  )
        33           I   tau(  33) = (   0.7420291   0.4602726   0.0059529  )
        34           I   tau(  34) = (   0.5281242   0.4756771   0.2550822  )
        35           I   tau(  35) = (   0.5263352   0.7447735   0.0179705  )
        36           Cs  tau(  36) = (   0.7240232   0.7534342   0.7655358  )
        37           Sn  tau(  37) = (   0.5099456   0.5149924   0.4966850  )
        38           I   tau(  38) = (   0.7444006   0.4963738   0.4949934  )
        39           I   tau(  39) = (   0.5453028   0.5333278   0.7551554  )
        40           I   tau(  40) = (   0.5098086   0.7636201   0.4665781  )

     number of k points=    32
                       cart. coord. in units 2pi/alat
        k(    1) = (   0.1250000   0.1250000   0.1250000), wk =   0.0625000
        k(    2) = (   0.1250000   0.1250000   0.3750000), wk =   0.0625000
        k(    3) = (   0.1250000   0.3750000   0.3750000), wk =   0.0625000
        k(    4) = (   0.3750000   0.3750000   0.3750000), wk =   0.0625000
        k(    5) = (  -0.1250000  -0.1250000   0.1250000), wk =   0.0625000
        k(    6) = (  -0.1250000   0.1250000  -0.1250000), wk =   0.0625000
        k(    7) = (   0.1250000  -0.1250000  -0.1250000), wk =   0.0625000
        k(    8) = (  -0.1250000  -0.1250000   0.3750000), wk =   0.0625000
        k(    9) = (  -0.1250000   0.1250000  -0.3750000), wk =   0.0625000
        k(   10) = (   0.1250000  -0.1250000  -0.3750000), wk =   0.0625000
        k(   11) = (   0.3750000  -0.1250000   0.1250000), wk =   0.0625000
        k(   12) = (  -0.3750000  -0.1250000  -0.1250000), wk =   0.0625000
        k(   13) = (   0.3750000   0.1250000  -0.1250000), wk =   0.0625000
        k(   14) = (  -0.3750000   0.1250000   0.1250000), wk =   0.0625000
        k(   15) = (  -0.1250000   0.3750000   0.1250000), wk =   0.0625000
        k(   16) = (  -0.1250000  -0.3750000  -0.1250000), wk =   0.0625000
        k(   17) = (   0.1250000   0.3750000  -0.1250000), wk =   0.0625000
        k(   18) = (   0.1250000  -0.3750000   0.1250000), wk =   0.0625000
        k(   19) = (  -0.1250000  -0.3750000   0.3750000), wk =   0.0625000
        k(   20) = (  -0.1250000   0.3750000  -0.3750000), wk =   0.0625000
        k(   21) = (   0.1250000  -0.3750000  -0.3750000), wk =   0.0625000
        k(   22) = (   0.3750000   0.1250000  -0.3750000), wk =   0.0625000
        k(   23) = (  -0.3750000  -0.1250000  -0.3750000), wk =   0.0625000
        k(   24) = (   0.3750000  -0.1250000   0.3750000), wk =   0.0625000
        k(   25) = (  -0.3750000   0.1250000   0.3750000), wk =   0.0625000
        k(   26) = (   0.3750000  -0.3750000   0.1250000), wk =   0.0625000
        k(   27) = (  -0.3750000  -0.3750000  -0.1250000), wk =   0.0625000
        k(   28) = (   0.3750000   0.3750000  -0.1250000), wk =   0.0625000
        k(   29) = (  -0.3750000   0.3750000   0.1250000), wk =   0.0625000
        k(   30) = (  -0.3750000  -0.3750000   0.3750000), wk =   0.0625000
        k(   31) = (  -0.3750000   0.3750000  -0.3750000), wk =   0.0625000
        k(   32) = (   0.3750000  -0.3750000  -0.3750000), wk =   0.0625000

     Dense  grid:  1061107 G-vectors     FFT dimensions: ( 128, 128, 128)

     Estimated max dynamical RAM per process >       6.82 GB

     Estimated total dynamical RAM >      27.27 GB

     Initial potential from superposition of free atoms

     starting charge  351.69472, renormalised to  352.00000
     Starting wfcs are  208 randomized atomic wfcs

     total cpu time spent up to now is       18.0 secs

     Self-consistent Calculation

     iteration #  1     ecut=    70.00 Ry     beta= 0.70
     Davidson diagonalization with overlap
     ethr =  1.00E-02,  avg # of iterations =  2.0

     Threshold (ethr) on eigenvalues was too large:
     Diagonalizing with lowered threshold

     Davidson diagonalization with overlap
     ethr =  2.18E-04,  avg # of iterations =  4.0

     total cpu time spent up to now is       39.0 secs

     total energy              =   -2256.03605084 Ry
     estimated scf accuracy    <       0.66802098 Ry

     iteration #  2     ecut=    70.00 Ry     beta= 0.70
     Davidson diagonalization with overlap
     ethr =  1.90E-04,  avg # of iterations =  3.3

     total cpu time spent up to now is       51.9 secs

     total energy              =   -2256.24344119 Ry
     estimated scf accuracy    <       0.29655637 Ry

     iteration #  3     ecut=    70.00 Ry     beta= 0.70
     Davidson diagonalization with overlap
     ethr =  8.42E-05,  avg # of iterations =  2.8

     total cpu time spent up to now is       63.8 secs

     total energy              =   -2256.29967095 Ry
     estimated scf accuracy    <       0.02301903 Ry

     iteration #  4     ecut=    70.00 Ry     beta= 0.70
     Davidson diagonalization with overlap
     ethr =  6.54E-06,  avg # of iterations =  4.1

     total cpu time spent up to now is       77.3 secs

     total energy              =   -2256.30772538 Ry
     estimated scf accuracy    <       0.00601608 Ry

     iteration #  5     ecut=    70.00 Ry     beta= 0.70
     Davidson diagonalization with overlap
     ethr =  1.71E-06,  avg # of iterations =  3.0

     total cpu time spent up to now is       89.2 secs

     total energy              =   -2256.30885268 Ry
     estimated scf accuracy    <       0.00103367 Ry

     iteration #  6     ecut=    70.00 Ry     beta= 0.70
     Davidson diagonalization with overlap
     ethr =  2.94E-07,  avg # of iterations =  3.9

     total cpu time spent up to now is      101.8 secs

     total energy              =   -2256.30903314 Ry
     estimated scf accuracy    <       0.00014009 Ry

     iteration #  7     ecut=    70.00 Ry     beta= 0.70
     Davidson diagonalization with overlap
     ethr =  3.98E-08,  avg # of iterations =  5.2

     total cpu time spent up to now is      116.1 secs

     total energy              =   -2256.30908911 Ry
     estimated scf accuracy    <       0.00001520 Ry

     iteration #  8     ecut=    70.00 Ry     beta= 0.70
     Davidson diagonalization with overlap
     ethr =  4.32E-09,  avg # of iterations =  4.1

     total cpu time spent up to now is      130.3 secs

     total energy              =   -2256.30909589 Ry
     estimated scf accuracy    <       0.00000379 Ry

     iteration #  9     ecut=    70.00 Ry     beta= 0.70
     Davidson diagonalization with overlap
     ethr =  1.08E-09,  avg # of iterations =  4.1

     total cpu time spent up to now is      144.1 secs

     total energy              =   -2256.30909708 Ry
     estimated scf accuracy    <       0.00000081 Ry

     iteration # 10     ecut=    70.00 Ry     beta= 0.70
     Davidson diagonalization with overlap
     ethr =  2.29E-10,  avg # of iterations =  3.7

     total cpu time spent up to now is      157.5 secs

     total energy              =   -2256.30909732 Ry
     estimated scf accuracy    <       0.00000013 Ry

     iteration # 11     ecut=    70.00 Ry     beta= 0.70
     Davidson diagonalization with overlap
     ethr =  3.80E-11,  avg # of iterations =  4.6

     total cpu time spent up to now is      172.1 secs

     total energy              =   -2256.30909739 Ry
     estimated scf accuracy    <       0.00000002 Ry

     iteration # 12     ecut=    70.00 Ry     beta= 0.70
     Davidson diagonalization with overlap
     ethr =  6.15E-12,  avg # of iterations =  5.2

     total cpu time spent up to now is      188.0 secs

     total energy              =   -2256.30909740 Ry
     estimated scf accuracy    <          8.2E-09 Ry

     iteration # 13     ecut=    70.00 Ry     beta= 0.70
     Davidson diagonalization with overlap
     ethr =  2.33E-12,  avg # of iterations =  3.6

     total cpu time spent up to now is      201.1 secs

     total energy              =   -2256.30909740 Ry
     estimated scf accuracy    <          6.3E-10 Ry

     iteration # 14     ecut=    70.00 Ry     beta= 0.70
     Davidson diagonalization with overlap
     ethr =  1.80E-13,  avg # of iterations =  6.2

     total cpu time spent up to now is      218.1 secs

     total energy              =   -2256.30909740 Ry
     estimated scf accuracy    <          1.9E-10 Ry

     iteration # 15     ecut=    70.00 Ry     beta= 0.70
     Davidson diagonalization with overlap
     ethr =  1.00E-13,  avg # of iterations =  3.3

     total cpu time spent up to now is      230.1 secs

     End of self-consistent calculation

          k = 0.1250 0.1250 0.1250 (132670 PWs)   bands (ev):

   -18.5301 -18.4765 -18.4717 -18.3189 -18.3085 -18.3033 -18.3015 -18.3001
   -18.2985 -18.2949 -18.2937 -18.2932 -18.2929 -18.2878 -18.2854 -18.2823
   -18.2802 -18.2794 -18.2779 -18.2681 -18.2593 -18.2557 -18.2552 -18.2495
   -18.2479 -18.2475 -18.2448 -18.2444 -18.2411 -18.2401 -18.2383 -18.2381
   -18.2346 -18.2335 -18.2330 -18.2290 -18.2282 -18.2252 -18.2213 -18.2209
   -18.2133 -18.2131 -18.2099 -18.2046 -18.1998 -18.1958 -18.1870 -18.1472
    -9.4384  -9.3402  -9.2828  -9.2634  -9.1502  -9.1250  -9.0661  -9.0375
    -8.9833  -8.9368  -8.9100  -8.8984  -8.8906  -8.8748  -8.8414  -8.8235
    -8.8019  -8.7692  -8.7452  -8.6902  -8.6386  -8.6255  -8.5588  -8.5100
    -5.2978  -5.2839  -5.2735  -5.2494  -5.2453  -5.2370  -5.2334  -5.2273
    -5.2232  -5.1077  -5.0919  -5.0863  -5.0194  -5.0115  -5.0092  -5.0078
    -5.0021  -5.0011  -4.9973  -4.9960  -4.9861  -4.9492  -4.9423  -4.9287
    -4.4564  -3.9684  -3.9252  -3.9078  -3.4114  -3.3866  -3.3394  -2.7624
    -0.7362  -0.6679  -0.6388  -0.5826  -0.5639  -0.5331  -0.5061  -0.4503
    -0.4332  -0.3942  -0.3232  -0.2262   0.4610   0.4842   0.5360   0.6066
     0.6449   0.6765   0.7396   0.7491   0.7752   0.8964   0.9285   0.9364
     0.9914   1.0406   1.0650   1.0886   1.1215   1.1427   1.1732   1.2031
     1.2117   1.2588   1.2752   1.2946   1.3113   1.3536   1.3889   1.4062
     1.4225   1.4360   1.4441   1.4717   1.4798   1.5118   1.5338   1.5595
     1.5699   1.5938   1.6110   1.6360   1.6459   1.6579   1.6959   1.7111
     1.7431   1.7767   1.7914   1.9289   1.9986   2.0256   2.0494   2.0917
     2.1311   2.1780   2.2219   2.2335   2.5830   2.6608   2.6987   3.0744

          k = 0.1250 0.1250 0.3750 (132608 PWs)   bands (ev):

   -18.5301 -18.4765 -18.4717 -18.3189 -18.3085 -18.3033 -18.3015 -18.3001
   -18.2985 -18.2949 -18.2937 -18.2932 -18.2929 -18.2878 -18.2854 -18.2823
   -18.2802 -18.2794 -18.2779 -18.2681 -18.2593 -18.2557 -18.2552 -18.2495
   -18.2479 -18.2475 -18.2448 -18.2444 -18.2411 -18.2401 -18.2383 -18.2381
   -18.2346 -18.2335 -18.2330 -18.2290 -18.2282 -18.2252 -18.2213 -18.2209
   -18.2133 -18.2131 -18.2099 -18.2046 -18.1998 -18.1958 -18.1870 -18.1472
    -9.4163  -9.3543  -9.2878  -9.2591  -9.1708  -9.1221  -9.0874  -9.0381
    -8.9784  -8.9390  -8.9123  -8.8994  -8.8874  -8.8459  -8.8286  -8.8212
    -8.7847  -8.7835  -8.7418  -8.7004  -8.6431  -8.6262  -8.5603  -8.5138
    -5.2978  -5.2838  -5.2734  -5.2493  -5.2453  -5.2369  -5.2334  -5.2273
    -5.2230  -5.1078  -5.0920  -5.0864  -5.0192  -5.0116  -5.0094  -5.0074
    -5.0023  -5.0007  -4.9972  -4.9961  -4.9879  -4.9492  -4.9421  -4.9287
    -4.3274  -4.1044  -3.8614  -3.7861  -3.5805  -3.5091  -3.2508  -2.9730
    -0.6682  -0.6217  -0.5936  -0.5364  -0.5053  -0.4748  -0.4455  -0.4008
    -0.1467  -0.1045  -0.0568   0.0137   0.4321   0.4929   0.5114   0.5318
     0.5762   0.5989   0.6126   0.6565   0.6883   0.7079   0.7324   0.7825
     0.8574   0.8974   1.0181   1.0496   1.0797   1.1226   1.1429   1.1845
     1.2115   1.2528   1.2742   1.2949   1.3153   1.3545   1.3760   1.4043
     1.4108   1.4233   1.4551   1.4708   1.5209   1.5338   1.5508   1.5733
     1.5961   1.6254   1.6434   1.6567   1.6736   1.6850   1.7101   1.7431
     1.7588   1.7877   1.8281   1.8583   1.9383   1.9539   1.9873   2.0180
     2.0946   2.1324   2.1778   2.2525   2.3753   2.4497   2.6864   2.8631

          k = 0.1250 0.3750 0.3750 (132616 PWs)   bands (ev):

   -18.5301 -18.4765 -18.4717 -18.3189 -18.3085 -18.3033 -18.3015 -18.3001
   -18.2985 -18.2949 -18.2937 -18.2931 -18.2929 -18.2878 -18.2854 -18.2823
   -18.2802 -18.2794 -18.2779 -18.2681 -18.2593 -18.2557 -18.2552 -18.2495
   -18.2478 -18.2476 -18.2448 -18.2444 -18.2411 -18.2401 -18.2383 -18.2381
   -18.2346 -18.2335 -18.2330 -18.2290 -18.2282 -18.2252 -18.2213 -18.2209
   -18.2133 -18.2131 -18.2099 -18.2046 -18.1998 -18.1958 -18.1870 -18.1472
    -9.4043  -9.3565  -9.2829  -9.2605  -9.1857  -9.1333  -9.0829  -9.0532
    -8.9753  -8.9431  -8.9170  -8.8965  -8.8841  -8.8364  -8.8273  -8.8115
    -8.7840  -8.7663  -8.7439  -8.7009  -8.6423  -8.6317  -8.5669  -8.5155
    -5.2974  -5.2837  -5.2733  -5.2496  -5.2456  -5.2372  -5.2332  -5.2274
    -5.2231  -5.1079  -5.0920  -5.0863  -5.0192  -5.0111  -5.0093  -5.0072
    -5.0030  -5.0001  -4.9978  -4.9965  -4.9879  -4.9490  -4.9421  -4.9284
    -4.2136  -4.0234  -3.9648  -3.7848  -3.6340  -3.4278  -3.3811  -3.1641
    -0.6359  -0.5806  -0.5528  -0.5037  -0.3464  -0.3055  -0.2368  -0.1374
    -0.0788  -0.0296   0.0595   0.1338   0.3470   0.4354   0.4767   0.5037
     0.5420   0.5712   0.5969   0.6102   0.6325   0.6528   0.6965   0.7155
     0.7972   0.8838   0.9171   0.9690   0.9836   1.0215   1.0867   1.1108
     1.1514   1.1901   1.2097   1.2642   1.2881   1.3188   1.3430   1.3970
     1.4281   1.4552   1.4667   1.5030   1.5112   1.5461   1.5759   1.6045
     1.6149   1.6372   1.6663   1.6732   1.6855   1.7055   1.7345   1.7689
     1.7772   1.8236   1.8392   1.8863   1.8949   1.9294   1.9579   1.9676
     2.0316   2.0607   2.0839   2.1575   2.2754   2.4284   2.4893   2.5772

          k = 0.3750 0.3750 0.3750 (132612 PWs)   bands (ev):

   -18.5301 -18.4765 -18.4717 -18.3189 -18.3085 -18.3033 -18.3016 -18.3001
   -18.2985 -18.2949 -18.2937 -18.2931 -18.2929 -18.2878 -18.2854 -18.2823
   -18.2802 -18.2794 -18.2779 -18.2681 -18.2593 -18.2557 -18.2552 -18.2495
   -18.2478 -18.2476 -18.2448 -18.2445 -18.2411 -18.2401 -18.2383 -18.2381
   -18.2346 -18.2335 -18.2330 -18.2290 -18.2282 -18.2252 -18.2213 -18.2209
   -18.2133 -18.2131 -18.2099 -18.2046 -18.1998 -18.1958 -18.1870 -18.1472
    -9.3964  -9.3474  -9.2833  -9.2638  -9.1890  -9.1448  -9.1047  -9.0503
    -8.9907  -8.9488  -8.9196  -8.8946  -8.8569  -8.8305  -8.8156  -8.7972
    -8.7867  -8.7597  -8.7429  -8.7064  -8.6510  -8.6368  -8.5685  -8.5161
    -5.2977  -5.2838  -5.2734  -5.2487  -5.2458  -5.2377  -5.2333  -5.2264
    -5.2239  -5.1077  -5.0920  -5.0861  -5.0194  -5.0128  -5.0097  -5.0069
    -5.0021  -5.0002  -4.9977  -4.9957  -4.9870  -4.9490  -4.9421  -4.9283
    -4.0980  -3.9183  -3.8545  -3.8319  -3.6279  -3.5963  -3.5535  -3.3485
    -0.4300  -0.3425  -0.2977  -0.2669  -0.2275  -0.2144  -0.1391  -0.0819
    -0.0611   0.0173   0.0654   0.1886   0.3126   0.3727   0.4124   0.4551
     0.4748   0.5252   0.5363   0.5570   0.5696   0.6055   0.6391   0.6679
     0.8368   0.9036   0.9249   0.9637   0.9866   1.0267   1.0449   1.0740
     1.1049   1.1180   1.1539   1.1730   1.2087   1.2529   1.2717   1.3278
     1.3671   1.3927   1.4205   1.4670   1.5092   1.5246   1.5865   1.6320
     1.6570   1.6731   1.6940   1.7111   1.7242   1.7529   1.7674   1.7873
     1.7985   1.8197   1.8475   1.8610   1.8832   1.9096   1.9278   1.9483
     1.9852   2.0112   2.0448   2.0670   2.1444   2.1732   2.2410   2.2899

          k =-0.1250-0.1250 0.1250 (132670 PWs)   bands (ev):

   -18.5301 -18.4765 -18.4717 -18.3189 -18.3085 -18.3033 -18.3015 -18.3001
   -18.2985 -18.2949 -18.2937 -18.2932 -18.2929 -18.2878 -18.2854 -18.2823
   -18.2802 -18.2794 -18.2779 -18.2681 -18.2593 -18.2557 -18.2552 -18.2495
   -18.2479 -18.2475 -18.2448 -18.2444 -18.2411 -18.2401 -18.2383 -18.2381
   -18.2346 -18.2335 -18.2330 -18.2290 -18.2282 -18.2252 -18.2213 -18.2209
   -18.2133 -18.2131 -18.2099 -18.2046 -18.1998 -18.1958 -18.1870 -18.1472
    -9.4378  -9.3397  -9.2899  -9.2570  -9.1571  -9.1204  -9.0654  -9.0300
    -8.9854  -8.9374  -8.9182  -8.8994  -8.8887  -8.8719  -8.8438  -8.8209
    -8.8006  -8.7724  -8.7416  -8.6914  -8.6384  -8.6256  -8.5585  -8.5102
    -5.2978  -5.2840  -5.2735  -5.2494  -5.2454  -5.2370  -5.2334  -5.2273
    -5.2232  -5.1075  -5.0919  -5.0864  -5.0193  -5.0114  -5.0092  -5.0079
    -5.0022  -5.0013  -4.9973  -4.9959  -4.9860  -4.9493  -4.9423  -4.9287
    -4.4549  -3.9727  -3.9312  -3.9007  -3.4094  -3.3953  -3.3305  -2.7619
    -0.7503  -0.6833  -0.6398  -0.5849  -0.5633  -0.5283  -0.4973  -0.4520
    -0.4236  -0.3853  -0.3240  -0.2112   0.4588   0.4804   0.5371   0.6026
     0.6457   0.6803   0.7363   0.7449   0.7766   0.8946   0.9172   0.9487
     0.9664   1.0401   1.0579   1.0979   1.1327   1.1532   1.1776   1.1832
     1.2322   1.2761   1.2797   1.2998   1.3301   1.3583   1.3698   1.3807
     1.3992   1.4214   1.4325   1.4626   1.4818   1.5171   1.5358   1.5688
     1.5743   1.5909   1.6145   1.6395   1.6472   1.6807   1.6984   1.7097
     1.7486   1.7610   1.7984   1.9349   1.9838   2.0311   2.0529   2.0889
     2.1315   2.1541   2.2104   2.2548   2.6152   2.6518   2.6912   3.0895

          k =-0.1250 0.1250-0.1250 (132670 PWs)   bands (ev):

   -18.5301 -18.4765 -18.4717 -18.3189 -18.3085 -18.3033 -18.3015 -18.3001
   -18.2985 -18.2949 -18.2937 -18.2932 -18.2929 -18.2878 -18.2854 -18.2823
   -18.2802 -18.2794 -18.2779 -18.2681 -18.2593 -18.2557 -18.2552 -18.2495
   -18.2479 -18.2475 -18.2448 -18.2444 -18.2411 -18.2401 -18.2383 -18.2381
   -18.2346 -18.2335 -18.2330 -18.2290 -18.2282 -18.2252 -18.2213 -18.2209
   -18.2133 -18.2131 -18.2099 -18.2046 -18.1998 -18.1958 -18.1870 -18.1472
    -9.4374  -9.3441  -9.2832  -9.2564  -9.1605  -9.1228  -9.0649  -9.0290
    -8.9847  -8.9377  -8.9179  -8.8979  -8.8861  -8.8743  -8.8400  -8.8245
    -8.8054  -8.7693  -8.7424  -8.6895  -8.6397  -8.6255  -8.5584  -8.5101
    -5.2980  -5.2839  -5.2734  -5.2493  -5.2452  -5.2370  -5.2335  -5.2273
    -5.2232  -5.1077  -5.0919  -5.0863  -5.0188  -5.0124  -5.0091  -5.0080
    -5.0020  -5.0002  -4.9973  -4.9966  -4.9860  -4.9492  -4.9423  -4.9287
    -4.4550  -3.9895  -3.9201  -3.8902  -3.4246  -3.3971  -3.3179  -2.7626
    -0.7444  -0.6784  -0.6320  -0.5929  -0.5574  -0.5333  -0.4924  -0.4685
    -0.4295  -0.3771  -0.3304  -0.2096   0.4668   0.4826   0.5253   0.6019
     0.6498   0.6747   0.7355   0.7583   0.7812   0.8697   0.9123   0.9585
     0.9915   1.0295   1.0743   1.0883   1.1221   1.1449   1.1802   1.1991
     1.2180   1.2491   1.2802   1.2985   1.3198   1.3503   1.3728   1.3926
     1.4071   1.4336   1.4512   1.4700   1.4806   1.5104   1.5388   1.5588
     1.5746   1.5920   1.6300   1.6357   1.6558   1.6722   1.6799   1.7205
     1.7433   1.7675   1.8004   1.9397   1.9706   2.0383   2.0637   2.0941
     2.1315   2.1469   2.2180   2.2411   2.6190   2.6530   2.6841   3.0742

          k = 0.1250-0.1250-0.1250 (132670 PWs)   bands (ev):

   -18.5301 -18.4765 -18.4717 -18.3189 -18.3085 -18.3033 -18.3015 -18.3001
   -18.2985 -18.2949 -18.2937 -18.2932 -18.2929 -18.2878 -18.2854 -18.2823
   -18.2802 -18.2794 -18.2779 -18.2681 -18.2593 -18.2557 -18.2552 -18.2495
   -18.2479 -18.2475 -18.2448 -18.2444 -18.2411 -18.2401 -18.2383 -18.2381
   -18.2346 -18.2335 -18.2330 -18.2290 -18.2282 -18.2252 -18.2213 -18.2209
   -18.2133 -18.2131 -18.2099 -18.2046 -18.1998 -18.1958 -18.1870 -18.1472
    -9.4365  -9.3471  -9.2750  -9.2654  -9.1505  -9.1305  -9.0544  -9.0398
    -8.9839  -8.9385  -8.9155  -8.9019  -8.8845  -8.8745  -8.8433  -8.8240
    -8.7997  -8.7719  -8.7403  -8.6902  -8.6400  -8.6258  -8.5585  -8.5100
    -5.2980  -5.2839  -5.2735  -5.2493  -5.2452  -5.2370  -5.2335  -5.2274
    -5.2232  -5.1076  -5.0919  -5.0863  -5.0190  -5.0123  -5.0088  -5.0084
    -5.0017  -4.9999  -4.9975  -4.9968  -4.9861  -4.9492  -4.9423  -4.9287
    -4.4549  -3.9857  -3.9265  -3.8902  -3.4280  -3.3853  -3.3219  -2.7653
    -0.7368  -0.6547  -0.6393  -0.6080  -0.5591  -0.5401  -0.4940  -0.4617
    -0.4259  -0.4025  -0.3097  -0.2187   0.4620   0.4817   0.5317   0.5977
     0.6521   0.6789   0.7293   0.7568   0.7865   0.8791   0.9317   0.9630
     0.9910   1.0189   1.0583   1.0926   1.1262   1.1443   1.1809   1.2081
     1.2211   1.2389   1.2745   1.2897   1.3228   1.3500   1.3765   1.4032
     1.4213   1.4268   1.4551   1.4649   1.4794   1.5021   1.5350   1.5597
     1.5656   1.5938   1.6158   1.6232   1.6585   1.6762   1.6911   1.7171
     1.7466   1.7714   1.7926   1.9349   1.9908   2.0352   2.0575   2.0816
     2.1342   2.1862   2.2062   2.2416   2.5868   2.6503   2.7027   3.0704

          k =-0.1250-0.1250 0.3750 (132608 PWs)   bands (ev):

   -18.5301 -18.4765 -18.4717 -18.3189 -18.3085 -18.3033 -18.3015 -18.3001
   -18.2985 -18.2949 -18.2937 -18.2932 -18.2929 -18.2878 -18.2854 -18.2823
   -18.2802 -18.2794 -18.2779 -18.2681 -18.2592 -18.2557 -18.2552 -18.2495
   -18.2479 -18.2475 -18.2448 -18.2444 -18.2411 -18.2401 -18.2383 -18.2381
   -18.2346 -18.2335 -18.2330 -18.2290 -18.2282 -18.2252 -18.2213 -18.2209
   -18.2133 -18.2131 -18.2099 -18.2046 -18.1998 -18.1958 -18.1870 -18.1472
    -9.4151  -9.3549  -9.2941  -9.2515  -9.1768  -9.1228  -9.0823  -9.0331
    -8.9800  -8.9382  -8.9205  -8.8993  -8.8854  -8.8479  -8.8298  -8.8145
    -8.7914  -8.7801  -8.7388  -8.7021  -8.6430  -8.6262  -8.5600  -8.5141
    -5.2977  -5.2839  -5.2734  -5.2493  -5.2453  -5.2369  -5.2334  -5.2273
    -5.2230  -5.1076  -5.0920  -5.0865  -5.0191  -5.0114  -5.0096  -5.0075
    -5.0021  -5.0008  -4.9975  -4.9960  -4.9877  -4.9493  -4.9421  -4.9287
    -4.3228  -4.1124  -3.8550  -3.7925  -3.5657  -3.5251  -3.2444  -2.9739
    -0.6719  -0.6231  -0.6058  -0.5385  -0.5232  -0.4770  -0.4324  -0.3908
    -0.1627  -0.0875  -0.0149   0.0250   0.4235   0.4846   0.5037   0.5129
     0.5690   0.5970   0.6292   0.6545   0.6820   0.7072   0.7270   0.7789
     0.8521   0.8897   1.0317   1.0423   1.0699   1.1362   1.1694   1.1816
     1.2027   1.2755   1.2871   1.3067   1.3237   1.3559   1.3585   1.3887
     1.3976   1.4267   1.4402   1.4716   1.5015   1.5262   1.5495   1.5767
     1.5908   1.6249   1.6438   1.6656   1.6852   1.7124   1.7158   1.7329
     1.7476   1.7826   1.8162   1.8709   1.9457   1.9667   1.9708   2.0292
     2.0700   2.1266   2.1718   2.2759   2.3991   2.4262   2.6931   2.8682

          k =-0.1250 0.1250-0.3750 (132608 PWs)   bands (ev):

   -18.5301 -18.4765 -18.4717 -18.3189 -18.3085 -18.3033 -18.3015 -18.3001
   -18.2985 -18.2949 -18.2937 -18.2932 -18.2929 -18.2878 -18.2854 -18.2823
   -18.2802 -18.2794 -18.2779 -18.2681 -18.2593 -18.2557 -18.2552 -18.2495
   -18.2479 -18.2475 -18.2448 -18.2444 -18.2411 -18.2401 -18.2383 -18.2381
   -18.2346 -18.2335 -18.2330 -18.2290 -18.2282 -18.2252 -18.2213 -18.2209
   -18.2133 -18.2131 -18.2099 -18.2046 -18.1998 -18.1958 -18.1870 -18.1472
    -9.4158  -9.3526  -9.2973  -9.2500  -9.1744  -9.1255  -9.0813  -9.0352
    -8.9791  -8.9408  -8.9199  -8.8963  -8.8841  -8.8452  -8.8283  -8.8209
    -8.7890  -8.7833  -8.7388  -8.7000  -8.6439  -8.6263  -8.5599  -8.5140
    -5.2980  -5.2839  -5.2733  -5.2492  -5.2452  -5.2369  -5.2334  -5.2273
    -5.2230  -5.1077  -5.0920  -5.0864  -5.0186  -5.0123  -5.0093  -5.0078
    -5.0017  -5.0006  -4.9973  -4.9965  -4.9879  -4.9492  -4.9421  -4.9288
    -4.3247  -4.1073  -3.8690  -3.7804  -3.5752  -3.5128  -3.2502  -2.9727
    -0.6626  -0.6195  -0.6001  -0.5481  -0.5364  -0.4706  -0.4287  -0.3891
    -0.1659  -0.0927  -0.0197   0.0196   0.4300   0.4996   0.5119   0.5248
     0.5486   0.6004   0.6166   0.6430   0.6809   0.7087   0.7373   0.7778
     0.8611   0.8805   1.0112   1.0574   1.0891   1.1316   1.1495   1.1890
     1.2220   1.2528   1.2781   1.3003   1.3258   1.3446   1.3763   1.3814
     1.4071   1.4215   1.4506   1.4845   1.4999   1.5262   1.5470   1.5634
     1.6091   1.6246   1.6404   1.6682   1.6745   1.6999   1.7199   1.7513
     1.7554   1.7780   1.8157   1.8747   1.9416   1.9622   1.9825   2.0271
     2.0702   2.1261   2.1706   2.2671   2.4028   2.4356   2.6760   2.8646

          k = 0.1250-0.1250-0.3750 (132608 PWs)   bands (ev):

   -18.5301 -18.4765 -18.4717 -18.3189 -18.3085 -18.3033 -18.3015 -18.3001
   -18.2985 -18.2949 -18.2937 -18.2932 -18.2929 -18.2878 -18.2854 -18.2823
   -18.2802 -18.2794 -18.2779 -18.2681 -18.2592 -18.2557 -18.2552 -18.2495
   -18.2479 -18.2475 -18.2448 -18.2444 -18.2411 -18.2401 -18.2383 -18.2381
   -18.2346 -18.2335 -18.2330 -18.2290 -18.2282 -18.2252 -18.2213 -18.2209
   -18.2133 -18.2131 -18.2099 -18.2046 -18.1998 -18.1958 -18.1870 -18.1472
    -9.4137  -9.3582  -9.2907  -9.2557  -9.1718  -9.1244  -9.0730  -9.0465
    -8.9785  -8.9398  -8.9156  -8.9016  -8.8820  -8.8516  -8.8299  -8.8145
    -8.7926  -8.7774  -8.7392  -8.7004  -8.6442  -8.6267  -8.5601  -8.5138
    -5.2980  -5.2838  -5.2734  -5.2492  -5.2452  -5.2369  -5.2334  -5.2273
    -5.2230  -5.1077  -5.0920  -5.0864  -5.0188  -5.0121  -5.0092  -5.0080
    -5.0014  -5.0001  -4.9976  -4.9967  -4.9879  -4.9492  -4.9421  -4.9288
    -4.3240  -4.1082  -3.8722  -3.7760  -3.5914  -3.4954  -3.2486  -2.9770
    -0.6586  -0.6188  -0.6030  -0.5495  -0.5154  -0.4779  -0.4413  -0.3870
    -0.1547  -0.0955  -0.0463   0.0201   0.4291   0.4822   0.5016   0.5394
     0.5730   0.5870   0.6242   0.6657   0.6895   0.7173   0.7341   0.7683
     0.8623   0.8839   0.9954   1.0528   1.1060   1.1258   1.1409   1.2064
     1.2192   1.2483   1.2575   1.3045   1.3220   1.3531   1.3720   1.3940
     1.4059   1.4273   1.4361   1.4887   1.4950   1.5282   1.5464   1.5668
     1.6079   1.6131   1.6292   1.6612   1.6972   1.7015   1.7100   1.7391
     1.7609   1.7860   1.8357   1.8569   1.9467   1.9600   1.9755   2.0271
     2.0892   2.1277   2.1723   2.2796   2.3714   2.4367   2.6814   2.8626

          k = 0.3750-0.1250 0.1250 (132608 PWs)   bands (ev):

   -18.5301 -18.4765 -18.4717 -18.3189 -18.3085 -18.3033 -18.3016 -18.3001
   -18.2985 -18.2949 -18.2937 -18.2932 -18.2929 -18.2878 -18.2854 -18.2823
   -18.2802 -18.2794 -18.2779 -18.2681 -18.2592 -18.2557 -18.2552 -18.2495
   -18.2479 -18.2475 -18.2448 -18.2445 -18.2411 -18.2401 -18.2383 -18.2381
   -18.2346 -18.2335 -18.2330 -18.2290 -18.2282 -18.2252 -18.2213 -18.2209
   -18.2132 -18.2131 -18.2099 -18.2046 -18.1998 -18.1958 -18.1870 -18.1472
    -9.4187  -9.3619  -9.2697  -9.2577  -9.1808  -9.1294  -9.0591  -9.0356
    -8.9943  -8.9399  -8.9292  -8.9016  -8.8775  -8.8668  -8.8404  -8.8082
    -8.7965  -8.7469  -8.7315  -8.6950  -8.6545  -8.6357  -8.5603  -8.5107
    -5.2977  -5.2838  -5.2732  -5.2488  -5.2455  -5.2375  -5.2336  -5.2263
    -5.2239  -5.1076  -5.0918  -5.0863  -5.0178  -5.0124  -5.0091  -5.0084
    -5.0016  -4.9999  -4.9982  -4.9968  -4.9867  -4.9492  -4.9425  -4.9287
    -4.3238  -4.1034  -3.8322  -3.7853  -3.5931  -3.5276  -3.2548  -2.9996
    -0.7173  -0.6723  -0.5709  -0.5380  -0.4960  -0.4508  -0.3937  -0.2930
    -0.1182  -0.1016  -0.0641   0.0234   0.4414   0.4856   0.5011   0.5220
     0.5536   0.5824   0.6237   0.6452   0.6894   0.7159   0.7666   0.7951
     0.8974   0.9191   0.9767   1.0240   1.0523   1.1054   1.1294   1.1837
     1.2192   1.2452   1.2717   1.2942   1.3374   1.3447   1.3743   1.3994
     1.4150   1.4285   1.4615   1.4773   1.5104   1.5176   1.5541   1.5646
     1.5876   1.6047   1.6223   1.6559   1.6738   1.6995   1.7139   1.7423
     1.7848   1.8098   1.8155   1.8617   1.8965   1.9493   2.0046   2.0181
     2.0576   2.1012   2.1852   2.2581   2.3600   2.4137   2.6614   2.7767

          k =-0.3750-0.1250-0.1250 (132608 PWs)   bands (ev):

   -18.5301 -18.4765 -18.4717 -18.3189 -18.3085 -18.3033 -18.3016 -18.3001
   -18.2985 -18.2949 -18.2937 -18.2932 -18.2929 -18.2878 -18.2854 -18.2823
   -18.2802 -18.2794 -18.2779 -18.2681 -18.2592 -18.2557 -18.2552 -18.2495
   -18.2479 -18.2475 -18.2448 -18.2445 -18.2411 -18.2401 -18.2383 -18.2381
   -18.2346 -18.2335 -18.2330 -18.2290 -18.2282 -18.2252 -18.2213 -18.2209
   -18.2132 -18.2131 -18.2099 -18.2046 -18.1998 -18.1958 -18.1870 -18.1472
    -9.4206  -9.3562  -9.2853  -9.2485  -9.1647  -9.1398  -9.0686  -9.0350
    -8.9922  -8.9363  -8.9220  -8.9058  -8.8814  -8.8678  -8.8403  -8.8047
    -8.7948  -8.7504  -8.7316  -8.6959  -8.6533  -8.6355  -8.5605  -8.5107
    -5.2975  -5.2838  -5.2733  -5.2489  -5.2456  -5.2375  -5.2335  -5.2263
    -5.2239  -5.1076  -5.0918  -5.0863  -5.0185  -5.0110  -5.0096  -5.0083
    -5.0022  -5.0005  -4.9976  -4.9963  -4.9867  -4.9493  -4.9425  -4.9286
    -4.3272  -4.0943  -3.8435  -3.7875  -3.5761  -3.5289  -3.2670  -2.9958
    -0.7029  -0.6578  -0.5974  -0.5384  -0.5003  -0.4454  -0.3976  -0.2838
    -0.1290  -0.1027  -0.0627   0.0129   0.4414   0.4776   0.5050   0.5396
     0.5569   0.5711   0.6244   0.6527   0.6990   0.7171   0.7685   0.7824
     0.8861   0.9194   0.9919   1.0176   1.0681   1.1021   1.1279   1.1679
     1.2138   1.2440   1.2729   1.3064   1.3403   1.3568   1.3870   1.3963
     1.4138   1.4395   1.4583   1.4698   1.5215   1.5298   1.5596   1.5654
     1.5839   1.6047   1.6131   1.6188   1.6679   1.6958   1.7247   1.7534
     1.7798   1.7897   1.8244   1.8543   1.8936   1.9571   1.9854   2.0085
     2.0747   2.0927   2.2075   2.2635   2.3683   2.4060   2.6493   2.7763

          k = 0.3750 0.1250-0.1250 (132608 PWs)   bands (ev):

   -18.5301 -18.4765 -18.4717 -18.3189 -18.3085 -18.3033 -18.3016 -18.3001
   -18.2985 -18.2949 -18.2937 -18.2932 -18.2929 -18.2878 -18.2854 -18.2823
   -18.2802 -18.2794 -18.2779 -18.2681 -18.2592 -18.2557 -18.2552 -18.2495
   -18.2479 -18.2475 -18.2448 -18.2445 -18.2411 -18.2401 -18.2383 -18.2381
   -18.2346 -18.2335 -18.2330 -18.2290 -18.2282 -18.2252 -18.2213 -18.2209
   -18.2132 -18.2131 -18.2099 -18.2046 -18.1998 -18.1958 -18.1870 -18.1472
    -9.4196  -9.3581  -9.2768  -9.2578  -9.1754  -9.1287  -9.0579  -9.0376
    -8.9951  -8.9384  -8.9303  -8.9025  -8.8807  -8.8641  -8.8433  -8.8070
    -8.7908  -8.7515  -8.7280  -8.6984  -8.6532  -8.6354  -8.5604  -8.5108
    -5.2975  -5.2839  -5.2733  -5.2489  -5.2456  -5.2375  -5.2335  -5.2264
    -5.2240  -5.1074  -5.0919  -5.0864  -5.0184  -5.0111  -5.0098  -5.0079
    -5.0021  -5.0006  -4.9981  -4.9961  -4.9866  -4.9493  -4.9425  -4.9286
    -4.3242  -4.0981  -3.8422  -3.7900  -3.5838  -3.5231  -3.2603  -2.9979
    -0.7168  -0.6754  -0.5778  -0.5405  -0.4828  -0.4635  -0.4036  -0.2749
    -0.1116  -0.0937  -0.0605   0.0174   0.4395   0.4681   0.4797   0.5408
     0.5657   0.5784   0.6118   0.6620   0.7009   0.7188   0.7760   0.7866
     0.8878   0.9122   0.9632   1.0317   1.0455   1.1134   1.1269   1.1769
     1.2213   1.2660   1.2789   1.3151   1.3345   1.3434   1.3688   1.3892
     1.4016   1.4359   1.4701   1.4758   1.5019   1.5241   1.5485   1.5628
     1.5783   1.6028   1.6133   1.6495   1.6655   1.6942   1.7337   1.7470
     1.7889   1.8066   1.8182   1.8707   1.9087   1.9490   1.9833   1.9914
     2.0731   2.0935   2.2085   2.2540   2.3624   2.4111   2.6539   2.7929

          k =-0.3750 0.1250 0.1250 (132608 PWs)   bands (ev):

   -18.5301 -18.4765 -18.4717 -18.3189 -18.3085 -18.3033 -18.3016 -18.3001
   -18.2985 -18.2949 -18.2937 -18.2932 -18.2929 -18.2878 -18.2854 -18.2823
   -18.2802 -18.2794 -18.2779 -18.2681 -18.2592 -18.2557 -18.2552 -18.2495
   -18.2479 -18.2475 -18.2448 -18.2445 -18.2411 -18.2401 -18.2383 -18.2381
   -18.2346 -18.2335 -18.2330 -18.2290 -18.2282 -18.2252 -18.2213 -18.2209
   -18.2132 -18.2131 -18.2099 -18.2046 -18.1998 -18.1958 -18.1870 -18.1472
    -9.4167  -9.3649  -9.2789  -9.2488  -9.1653  -9.1448  -9.0599  -9.0343
    -8.9942  -8.9371  -8.9245  -8.9084  -8.8795  -8.8664  -8.8423  -8.8083
    -8.7921  -8.7487  -8.7281  -8.6967  -8.6547  -8.6360  -8.5603  -8.5107
    -5.2977  -5.2838  -5.2733  -5.2488  -5.2455  -5.2375  -5.2336  -5.2264
    -5.2239  -5.1075  -5.0918  -5.0863  -5.0180  -5.0122  -5.0089  -5.0087
    -5.0015  -4.9997  -4.9981  -4.9968  -4.9867  -4.9492  -4.9425  -4.9287
    -4.3217  -4.1084  -3.8257  -3.7931  -3.5662  -3.5518  -3.2496  -3.0039
    -0.7035  -0.6575  -0.5917  -0.5395  -0.5093  -0.4412  -0.4068  -0.2956
    -0.1088  -0.0948  -0.0667   0.0271   0.4382   0.4756   0.4935   0.5193
     0.5528   0.5815   0.6152   0.6591   0.6987   0.7283   0.7704   0.8013
     0.8838   0.9158   0.9879   1.0230   1.0533   1.0900   1.1416   1.1797
     1.2049   1.2422   1.2852   1.2984   1.3462   1.3663   1.3737   1.3913
     1.4205   1.4391   1.4557   1.4708   1.5000   1.5336   1.5447   1.5528
     1.5739   1.5825   1.6325   1.6590   1.6736   1.7010   1.7089   1.7504
     1.7785   1.8033   1.8229   1.8678   1.8992   1.9558   1.9929   2.0079
     2.0620   2.1018   2.2194   2.2412   2.3665   2.4117   2.6488   2.7710

          k =-0.1250 0.3750 0.1250 (132608 PWs)   bands (ev):

   -18.5301 -18.4765 -18.4717 -18.3189 -18.3085 -18.3033 -18.3015 -18.3001
   -18.2985 -18.2949 -18.2937 -18.2931 -18.2929 -18.2878 -18.2854 -18.2823
   -18.2802 -18.2794 -18.2779 -18.2681 -18.2593 -18.2557 -18.2552 -18.2495
   -18.2478 -18.2476 -18.2448 -18.2444 -18.2411 -18.2401 -18.2383 -18.2381
   -18.2346 -18.2335 -18.2330 -18.2290 -18.2282 -18.2252 -18.2213 -18.2209
   -18.2133 -18.2131 -18.2099 -18.2046 -18.1998 -18.1958 -18.1870 -18.1472
    -9.4193  -9.3634  -9.2846  -9.2372  -9.1691  -9.1476  -9.0585  -9.0352
    -8.9857  -8.9416  -8.9198  -8.9028  -8.8827  -8.8757  -8.8381  -8.8184
    -8.7825  -8.7605  -8.7367  -8.6933  -8.6399  -8.6308  -8.5659  -8.5126
    -5.2976  -5.2836  -5.2733  -5.2495  -5.2455  -5.2372  -5.2333  -5.2274
    -5.2233  -5.1078  -5.0919  -5.0863  -5.0182  -5.0114  -5.0097  -5.0082
    -5.0018  -4.9994  -4.9985  -4.9968  -4.9869  -4.9491  -4.9425  -4.9285
    -4.3344  -4.1322  -3.8086  -3.7796  -3.5895  -3.5533  -3.1953  -2.9770
    -0.7224  -0.6191  -0.6105  -0.5988  -0.5254  -0.5113  -0.4736  -0.3800
    -0.1449  -0.0793   0.0004   0.0736   0.3801   0.4640   0.5095   0.5536
     0.5763   0.6034   0.6362   0.6681   0.6898   0.7169   0.7963   0.8134
     0.9011   0.9151   0.9740   1.0569   1.0791   1.0956   1.1396   1.1763
     1.1910   1.2543   1.2800   1.3191   1.3368   1.3471   1.3830   1.3987
     1.4227   1.4410   1.4688   1.4823   1.4951   1.5319   1.5433   1.5602
     1.5843   1.5969   1.6168   1.6333   1.6781   1.7056   1.7176   1.7289
     1.7792   1.7987   1.8058   1.8754   1.9097   1.9587   2.0171   2.0512
     2.0760   2.1063   2.2280   2.2490   2.3608   2.4557   2.7048   2.8032

          k =-0.1250-0.3750-0.1250 (132608 PWs)   bands (ev):

   -18.5301 -18.4765 -18.4717 -18.3189 -18.3085 -18.3033 -18.3015 -18.3001
   -18.2985 -18.2949 -18.2937 -18.2931 -18.2929 -18.2878 -18.2854 -18.2823
   -18.2802 -18.2794 -18.2779 -18.2681 -18.2593 -18.2557 -18.2552 -18.2495
   -18.2478 -18.2476 -18.2448 -18.2444 -18.2411 -18.2401 -18.2383 -18.2381
   -18.2346 -18.2335 -18.2330 -18.2290 -18.2282 -18.2252 -18.2213 -18.2209
   -18.2133 -18.2131 -18.2099 -18.2046 -18.1998 -18.1958 -18.1870 -18.1472
    -9.4224  -9.3575  -9.2831  -9.2447  -9.1638  -9.1476  -9.0570  -9.0444
    -8.9845  -8.9401  -8.9125  -8.9018  -8.8884  -8.8731  -8.8382  -8.8198
    -8.7814  -8.7600  -8.7403  -8.6935  -8.6376  -8.6312  -8.5661  -8.5126
    -5.2974  -5.2837  -5.2734  -5.2497  -5.2456  -5.2372  -5.2332  -5.2273
    -5.2233  -5.1079  -5.0919  -5.0862  -5.0188  -5.0108  -5.0089  -5.0081
    -5.0033  -5.0004  -4.9975  -4.9964  -4.9869  -4.9491  -4.9425  -4.9285
    -4.3383  -4.1259  -3.8004  -3.7879  -3.5876  -3.5558  -3.2031  -2.9707
    -0.7260  -0.6171  -0.5993  -0.5701  -0.5561  -0.5240  -0.4662  -0.3832
    -0.1391  -0.0799  -0.0043   0.0698   0.3637   0.4836   0.5118   0.5468
     0.5896   0.5985   0.6300   0.6582   0.7002   0.7246   0.7937   0.8197
     0.8789   0.9320   0.9777   1.0542   1.0779   1.1006   1.1260   1.1607
     1.2050   1.2577   1.2751   1.3160   1.3313   1.3620   1.3839   1.3954
     1.4136   1.4375   1.4759   1.4841   1.5086   1.5258   1.5402   1.5799
     1.5817   1.6091   1.6191   1.6531   1.6771   1.6885   1.7071   1.7317
     1.7711   1.7842   1.8158   1.8759   1.9101   1.9588   1.9903   2.0569
     2.0749   2.1108   2.2314   2.2578   2.3565   2.4517   2.6933   2.8191

          k = 0.1250 0.3750-0.1250 (132608 PWs)   bands (ev):

   -18.5301 -18.4765 -18.4717 -18.3189 -18.3085 -18.3033 -18.3015 -18.3001
   -18.2985 -18.2949 -18.2937 -18.2931 -18.2929 -18.2878 -18.2854 -18.2823
   -18.2802 -18.2794 -18.2779 -18.2681 -18.2593 -18.2557 -18.2552 -18.2495
   -18.2478 -18.2476 -18.2448 -18.2444 -18.2411 -18.2401 -18.2383 -18.2381
   -18.2346 -18.2335 -18.2330 -18.2290 -18.2282 -18.2252 -18.2213 -18.2209
   -18.2133 -18.2131 -18.2099 -18.2046 -18.1998 -18.1958 -18.1870 -18.1472
    -9.4218  -9.3556  -9.2937  -9.2320  -9.1782  -9.1380  -9.0659  -9.0277
    -8.9873  -8.9405  -8.9234  -8.8997  -8.8867  -8.8731  -8.8371  -8.8176
    -8.7842  -8.7576  -8.7397  -8.6947  -8.6375  -8.6312  -8.5658  -8.5128
    -5.2974  -5.2838  -5.2733  -5.2497  -5.2456  -5.2372  -5.2332  -5.2273
    -5.2233  -5.1077  -5.0919  -5.0863  -5.0186  -5.0107  -5.0094  -5.0079
    -5.0029  -5.0008  -4.9976  -4.9962  -4.9868  -4.9492  -4.9424  -4.9285
    -4.3353  -4.1276  -3.8145  -3.7835  -3.5770  -3.5571  -3.2041  -2.9698
    -0.7303  -0.6386  -0.6055  -0.5801  -0.5376  -0.5171  -0.4708  -0.3752
    -0.1322  -0.0548  -0.0006   0.0764   0.3557   0.4603   0.5097   0.5365
     0.5937   0.6095   0.6362   0.6514   0.7034   0.7195   0.7968   0.8239
     0.8793   0.9067   0.9676   1.0597   1.0887   1.0995   1.1194   1.1830
     1.2098   1.2460   1.2766   1.3304   1.3498   1.3588   1.3796   1.3910
     1.4232   1.4411   1.4458   1.4813   1.4926   1.5170   1.5528   1.5655
     1.5865   1.6140   1.6332   1.6439   1.6788   1.6946   1.7088   1.7264
     1.7706   1.7923   1.8161   1.8676   1.9136   1.9637   1.9931   2.0585
     2.0781   2.0938   2.2103   2.2646   2.3750   2.4618   2.6864   2.8338

          k = 0.1250-0.3750 0.1250 (132608 PWs)   bands (ev):

   -18.5301 -18.4765 -18.4717 -18.3189 -18.3085 -18.3033 -18.3015 -18.3001
   -18.2985 -18.2949 -18.2937 -18.2931 -18.2929 -18.2878 -18.2854 -18.2823
   -18.2802 -18.2794 -18.2779 -18.2681 -18.2593 -18.2557 -18.2552 -18.2495
   -18.2478 -18.2476 -18.2448 -18.2444 -18.2411 -18.2401 -18.2383 -18.2381
   -18.2346 -18.2335 -18.2330 -18.2290 -18.2282 -18.2252 -18.2213 -18.2209
   -18.2133 -18.2131 -18.2099 -18.2046 -18.1998 -18.1958 -18.1870 -18.1472
    -9.4205  -9.3619  -9.2827  -9.2354  -9.1802  -9.1421  -9.0585  -9.0340
    -8.9859  -8.9415  -8.9193  -8.8996  -8.8862  -8.8724  -8.8382  -8.8200
    -8.7868  -8.7548  -8.7410  -8.6923  -8.6391  -8.6310  -8.5657  -8.5128
    -5.2976  -5.2837  -5.2733  -5.2496  -5.2455  -5.2372  -5.2333  -5.2273
    -5.2233  -5.1078  -5.0919  -5.0863  -5.0182  -5.0114  -5.0091  -5.0085
    -5.0024  -4.9998  -4.9982  -4.9966  -4.9868  -4.9491  -4.9424  -4.9285
    -4.3337  -4.1362  -3.7973  -3.7756  -3.5931  -3.5661  -3.1938  -2.9736
    -0.7314  -0.6255  -0.5944  -0.5757  -0.5465  -0.5226  -0.4754  -0.3864
    -0.1348  -0.0557   0.0005   0.0769   0.3752   0.4372   0.5147   0.5445
     0.5848   0.6066   0.6315   0.6643   0.6949   0.7251   0.7921   0.8210
     0.8720   0.9220   0.9898   1.0528   1.0738   1.0977   1.1352   1.1752
     1.1853   1.2618   1.2676   1.3181   1.3391   1.3600   1.3795   1.3980
     1.4215   1.4381   1.4729   1.4904   1.4950   1.5195   1.5301   1.5723
     1.5941   1.6088   1.6405   1.6499   1.6821   1.7004   1.7071   1.7204
     1.7740   1.7896   1.8201   1.8593   1.9101   1.9585   2.0180   2.0528
     2.0679   2.0989   2.2172   2.2562   2.3860   2.4416   2.6930   2.8193

          k =-0.1250-0.3750 0.3750 (132616 PWs)   bands (ev):

   -18.5301 -18.4765 -18.4717 -18.3189 -18.3085 -18.3033 -18.3015 -18.3001
   -18.2985 -18.2949 -18.2937 -18.2931 -18.2929 -18.2878 -18.2854 -18.2823
   -18.2802 -18.2794 -18.2779 -18.2681 -18.2593 -18.2557 -18.2552 -18.2495
   -18.2478 -18.2476 -18.2448 -18.2444 -18.2411 -18.2401 -18.2383 -18.2381
   -18.2346 -18.2335 -18.2330 -18.2290 -18.2282 -18.2252 -18.2213 -18.2209
   -18.2133 -18.2131 -18.2099 -18.2046 -18.1998 -18.1958 -18.1870 -18.1472
    -9.4034  -9.3540  -9.2988  -9.2443  -9.1904  -9.1362  -9.0840  -9.0421
    -8.9779  -8.9423  -8.9240  -8.8981  -8.8820  -8.8376  -8.8254  -8.8090
    -8.7840  -8.7696  -8.7394  -8.7031  -8.6422  -8.6316  -8.5666  -8.5157
    -5.2974  -5.2838  -5.2733  -5.2495  -5.2456  -5.2372  -5.2332  -5.2273
    -5.2231  -5.1078  -5.0920  -5.0864  -5.0190  -5.0109  -5.0098  -5.0073
    -5.0027  -5.0001  -4.9981  -4.9964  -4.9877  -4.9491  -4.9421  -4.9285
    -4.2041  -4.0458  -3.9480  -3.8077  -3.5952  -3.4753  -3.3496  -3.1671
    -0.6341  -0.5872  -0.5604  -0.5040  -0.3781  -0.3174  -0.2164  -0.1130
    -0.0862   0.0155   0.0563   0.1936   0.3470   0.4078   0.4507   0.4669
     0.5033   0.5605   0.5962   0.6062   0.6412   0.6668   0.6944   0.7492
     0.8036   0.8720   0.9080   0.9582   0.9905   1.0217   1.0776   1.1300
     1.1532   1.1922   1.2373   1.2639   1.2825   1.3280   1.3594   1.3868
     1.4236   1.4470   1.4586   1.5004   1.5129   1.5402   1.5780   1.5873
     1.6164   1.6295   1.6564   1.6880   1.6968   1.7111   1.7259   1.7677
     1.7844   1.8118   1.8363   1.8616   1.9253   1.9407   1.9602   1.9780
     2.0090   2.0578   2.0675   2.1826   2.2916   2.4188   2.4744   2.5966

          k =-0.1250 0.3750-0.3750 (132616 PWs)   bands (ev):

   -18.5301 -18.4765 -18.4717 -18.3189 -18.3085 -18.3033 -18.3015 -18.3001
   -18.2985 -18.2949 -18.2937 -18.2931 -18.2929 -18.2878 -18.2854 -18.2823
   -18.2802 -18.2794 -18.2779 -18.2681 -18.2592 -18.2557 -18.2552 -18.2495
   -18.2478 -18.2476 -18.2448 -18.2444 -18.2411 -18.2401 -18.2383 -18.2381
   -18.2346 -18.2335 -18.2330 -18.2290 -18.2282 -18.2252 -18.2213 -18.2209
   -18.2133 -18.2131 -18.2099 -18.2046 -18.1998 -18.1958 -18.1870 -18.1472
    -9.4036  -9.3550  -9.2951  -9.2470  -9.1902  -9.1375  -9.0750  -9.0525
    -8.9757  -8.9451  -8.9220  -8.8946  -8.8818  -8.8342  -8.8256  -8.8157
    -8.7871  -8.7649  -8.7415  -8.7005  -8.6431  -8.6319  -8.5665  -8.5156
    -5.2976  -5.2837  -5.2732  -5.2494  -5.2455  -5.2372  -5.2333  -5.2274
    -5.2231  -5.1079  -5.0920  -5.0863  -5.0187  -5.0115  -5.0090  -5.0080
    -5.0022  -4.9999  -4.9984  -4.9965  -4.9878  -4.9490  -4.9421  -4.9285
    -4.2049  -4.0490  -3.9469  -3.7962  -3.6063  -3.4759  -3.3459  -3.1681
    -0.6342  -0.5764  -0.5566  -0.5091  -0.3771  -0.3181  -0.2194  -0.1240
    -0.0916   0.0193   0.0564   0.1864   0.3681   0.4032   0.4468   0.4713
     0.5030   0.5658   0.5799   0.6082   0.6451   0.6752   0.6842   0.7482
     0.8020   0.8757   0.9214   0.9478   0.9853   1.0176   1.1027   1.1295
     1.1430   1.1980   1.2211   1.2564   1.2873   1.3163   1.3585   1.3837
     1.4291   1.4485   1.4723   1.4979   1.5148   1.5294   1.5630   1.6105
     1.6243   1.6382   1.6606   1.6823   1.6948   1.7134   1.7282   1.7646
     1.7840   1.8174   1.8418   1.8619   1.9173   1.9364   1.9644   1.9759
     2.0091   2.0530   2.0724   2.1892   2.2805   2.4293   2.4651   2.5858

          k = 0.1250-0.3750-0.3750 (132616 PWs)   bands (ev):

   -18.5301 -18.4765 -18.4717 -18.3189 -18.3085 -18.3033 -18.3015 -18.3001
   -18.2985 -18.2949 -18.2937 -18.2931 -18.2929 -18.2878 -18.2854 -18.2823
   -18.2802 -18.2794 -18.2779 -18.2681 -18.2593 -18.2557 -18.2552 -18.2495
   -18.2478 -18.2476 -18.2448 -18.2444 -18.2411 -18.2401 -18.2383 -18.2381
   -18.2346 -18.2335 -18.2330 -18.2290 -18.2282 -18.2252 -18.2213 -18.2209
   -18.2133 -18.2131 -18.2099 -18.2046 -18.1998 -18.1958 -18.1870 -18.1472
    -9.4011  -9.3593  -9.2930  -9.2516  -9.1840  -9.1357  -9.0771  -9.0540
    -8.9773  -8.9430  -8.9204  -8.8996  -8.8796  -8.8397  -8.8280  -8.8069
    -8.7863  -8.7656  -8.7407  -8.7010  -8.6437  -8.6320  -8.5667  -8.5154
    -5.2977  -5.2837  -5.2733  -5.2494  -5.2455  -5.2371  -5.2333  -5.2274
    -5.2231  -5.1078  -5.0919  -5.0864  -5.0188  -5.0116  -5.0094  -5.0079
    -5.0017  -4.9994  -4.9984  -4.9970  -4.9879  -4.9490  -4.9421  -4.9285
    -4.2074  -4.0269  -3.9686  -3.8039  -3.6109  -3.4266  -3.3782  -3.1712
    -0.6268  -0.5827  -0.5696  -0.5041  -0.3567  -0.2951  -0.2272  -0.1314
    -0.0802  -0.0330   0.0581   0.1454   0.3594   0.4330   0.4688   0.4999
     0.5366   0.5609   0.5843   0.6248   0.6436   0.6572   0.6743   0.7211
     0.8000   0.8754   0.9009   0.9761   0.9952   1.0183   1.0956   1.1269
     1.1497   1.1708   1.2277   1.2548   1.2981   1.3317   1.3522   1.3969
     1.4191   1.4319   1.4635   1.5070   1.5176   1.5316   1.5760   1.5869
     1.6146   1.6381   1.6509   1.6754   1.6927   1.7087   1.7313   1.7693
     1.7939   1.8233   1.8434   1.8779   1.9001   1.9381   1.9542   1.9735
     2.0418   2.0584   2.0814   2.1579   2.2873   2.4141   2.4890   2.5742

          k = 0.3750 0.1250-0.3750 (132616 PWs)   bands (ev):

   -18.5301 -18.4765 -18.4717 -18.3189 -18.3085 -18.3033 -18.3016 -18.3001
   -18.2985 -18.2949 -18.2937 -18.2932 -18.2929 -18.2878 -18.2854 -18.2823
   -18.2802 -18.2794 -18.2779 -18.2681 -18.2593 -18.2557 -18.2552 -18.2495
   -18.2479 -18.2475 -18.2448 -18.2445 -18.2411 -18.2401 -18.2383 -18.2381
   -18.2346 -18.2335 -18.2330 -18.2290 -18.2282 -18.2252 -18.2213 -18.2209
   -18.2133 -18.2131 -18.2099 -18.2046 -18.1998 -18.1958 -18.1870 -18.1472
    -9.4025  -9.3524  -9.2882  -9.2632  -9.1951  -9.1213  -9.0764  -9.0500
    -8.9911  -8.9457  -8.9258  -8.8977  -8.8658  -8.8458  -8.8162  -8.8039
    -8.7949  -8.7603  -8.7383  -8.7016  -8.6537  -8.6346  -8.5626  -8.5146
    -5.2975  -5.2838  -5.2733  -5.2490  -5.2456  -5.2375  -5.2335  -5.2264
    -5.2239  -5.1073  -5.0920  -5.0863  -5.0182  -5.0115  -5.0098  -5.0081
    -5.0028  -5.0000  -4.9985  -4.9956  -4.9871  -4.9492  -4.9422  -4.9287
    -4.1933  -4.0052  -3.9635  -3.7601  -3.6702  -3.4319  -3.4245  -3.1904
    -0.6007  -0.5485  -0.5221  -0.4639  -0.3310  -0.2490  -0.2109  -0.1576
    -0.0322  -0.0034   0.0594   0.1178   0.3068   0.4180   0.4704   0.4991
     0.5130   0.5605   0.5705   0.6013   0.6299   0.6636   0.6768   0.7445
     0.7979   0.8616   0.9424   0.9799   0.9930   1.0083   1.0572   1.0912
     1.1532   1.2008   1.2229   1.2605   1.2906   1.3152   1.3393   1.3642
     1.3814   1.4177   1.4371   1.4977   1.5106   1.5517   1.5678   1.5940
     1.6139   1.6432   1.6655   1.6790   1.7050   1.7293   1.7505   1.7655
     1.7928   1.8078   1.8479   1.8667   1.9083   1.9339   1.9470   1.9863
     2.0149   2.0492   2.0830   2.1308   2.2569   2.3758   2.4356   2.5547

          k =-0.3750-0.1250-0.3750 (132616 PWs)   bands (ev):

   -18.5301 -18.4765 -18.4717 -18.3189 -18.3085 -18.3033 -18.3016 -18.3001
   -18.2985 -18.2949 -18.2937 -18.2932 -18.2929 -18.2878 -18.2854 -18.2823
   -18.2802 -18.2794 -18.2779 -18.2681 -18.2593 -18.2557 -18.2552 -18.2495
   -18.2479 -18.2475 -18.2448 -18.2445 -18.2411 -18.2401 -18.2383 -18.2381
   -18.2346 -18.2335 -18.2330 -18.2290 -18.2282 -18.2252 -18.2213 -18.2209
   -18.2133 -18.2131 -18.2099 -18.2046 -18.1998 -18.1958 -18.1870 -18.1472
    -9.4042  -9.3491  -9.2931  -9.2616  -9.1837  -9.1264  -9.0924  -9.0427
    -8.9911  -8.9422  -8.9201  -8.9004  -8.8701  -8.8409  -8.8161  -8.8066
    -8.7938  -8.7614  -8.7410  -8.6993  -8.6539  -8.6346  -8.5627  -8.5144
    -5.2975  -5.2838  -5.2733  -5.2490  -5.2455  -5.2375  -5.2335  -5.2264
    -5.2238  -5.1075  -5.0920  -5.0862  -5.0184  -5.0116  -5.0094  -5.0084
    -5.0028  -5.0005  -4.9978  -4.9957  -4.9873  -4.9492  -4.9422  -4.9287
    -4.2029  -3.9805  -3.9584  -3.8150  -3.6068  -3.4532  -3.4397  -3.1832
    -0.5865  -0.5504  -0.5025  -0.4801  -0.3320  -0.2314  -0.1924  -0.1445
    -0.0760  -0.0570   0.0555   0.0849   0.3441   0.4485   0.4675   0.5133
     0.5347   0.5508   0.5766   0.5952   0.6315   0.6590   0.6676   0.7354
     0.7932   0.8857   0.9315   0.9650   0.9823   1.0445   1.0855   1.1072
     1.1288   1.1654   1.2153   1.2456   1.2759   1.2972   1.3584   1.3784
     1.4027   1.4246   1.4452   1.4849   1.5193   1.5547   1.5834   1.5922
     1.6255   1.6337   1.6621   1.6818   1.7021   1.7295   1.7424   1.7679
     1.7883   1.8061   1.8447   1.8521   1.8896   1.9328   1.9592   1.9876
     2.0096   2.0468   2.0935   2.1377   2.2741   2.3676   2.4233   2.5502

          k = 0.3750-0.1250 0.3750 (132616 PWs)   bands (ev):

   -18.5301 -18.4765 -18.4717 -18.3189 -18.3085 -18.3033 -18.3016 -18.3001
   -18.2985 -18.2949 -18.2937 -18.2932 -18.2929 -18.2878 -18.2854 -18.2823
   -18.2802 -18.2794 -18.2779 -18.2681 -18.2593 -18.2557 -18.2552 -18.2495
   -18.2479 -18.2475 -18.2448 -18.2445 -18.2411 -18.2401 -18.2383 -18.2381
   -18.2346 -18.2335 -18.2330 -18.2290 -18.2282 -18.2252 -18.2213 -18.2209
   -18.2133 -18.2131 -18.2099 -18.2046 -18.1998 -18.1958 -18.1870 -18.1472
    -9.4036  -9.3496  -9.2911  -9.2632  -9.1920  -9.1232  -9.0752  -9.0528
    -8.9897  -8.9483  -8.9250  -8.8960  -8.8639  -8.8419  -8.8175  -8.8066
    -8.7984  -8.7603  -8.7376  -8.6995  -8.6547  -8.6350  -8.5624  -8.5145
    -5.2978  -5.2838  -5.2732  -5.2488  -5.2455  -5.2375  -5.2335  -5.2264
    -5.2238  -5.1075  -5.0920  -5.0862  -5.0177  -5.0124  -5.0093  -5.0086
    -5.0022  -4.9998  -4.9986  -4.9958  -4.9872  -4.9491  -4.9421  -4.9288
    -4.1988  -3.9854  -3.9593  -3.8179  -3.6074  -3.4534  -3.4310  -3.1861
    -0.5961  -0.5533  -0.5113  -0.4728  -0.3301  -0.2248  -0.1951  -0.1452
    -0.0671  -0.0612   0.0768   0.0964   0.3454   0.4534   0.4729   0.5062
     0.5171   0.5519   0.5607   0.5877   0.6172   0.6420   0.6819   0.7536
     0.7931   0.8759   0.9333   0.9616   0.9721   1.0488   1.0869   1.1067
     1.1221   1.1950   1.2207   1.2665   1.2785   1.3199   1.3366   1.3597
     1.3846   1.4116   1.4387   1.4822   1.5118   1.5552   1.5744   1.6008
     1.6188   1.6475   1.6642   1.6912   1.7034   1.7335   1.7480   1.7681
     1.7934   1.8141   1.8330   1.8597   1.8910   1.9366   1.9664   1.9982
     2.0161   2.0347   2.0801   2.1380   2.2738   2.3556   2.4259   2.5558

          k =-0.3750 0.1250 0.3750 (132616 PWs)   bands (ev):

   -18.5301 -18.4765 -18.4717 -18.3189 -18.3085 -18.3033 -18.3016 -18.3001
   -18.2985 -18.2949 -18.2937 -18.2932 -18.2929 -18.2878 -18.2854 -18.2823
   -18.2802 -18.2794 -18.2779 -18.2681 -18.2593 -18.2557 -18.2552 -18.2495
   -18.2479 -18.2475 -18.2448 -18.2445 -18.2411 -18.2401 -18.2383 -18.2381
   -18.2346 -18.2335 -18.2330 -18.2290 -18.2282 -18.2252 -18.2213 -18.2209
   -18.2133 -18.2131 -18.2099 -18.2046 -18.1998 -18.1958 -18.1870 -18.1472
    -9.4001  -9.3556  -9.2955  -9.2564  -9.1859  -9.1299  -9.0749  -9.0536
    -8.9910  -8.9428  -8.9220  -8.9014  -8.8651  -8.8488  -8.8123  -8.8055
    -8.7975  -8.7595  -8.7363  -8.7008  -8.6547  -8.6355  -8.5625  -8.5144
    -5.2978  -5.2837  -5.2733  -5.2488  -5.2455  -5.2375  -5.2335  -5.2264
    -5.2238  -5.1074  -5.0919  -5.0863  -5.0179  -5.0121  -5.0092  -5.0089
    -5.0022  -4.9995  -4.9987  -4.9959  -4.9873  -4.9491  -4.9422  -4.9287
    -4.1916  -4.0089  -3.9662  -3.7619  -3.6598  -3.4341  -3.4221  -3.1952
    -0.5843  -0.5337  -0.5137  -0.4934  -0.3313  -0.2435  -0.2176  -0.1655
    -0.0375  -0.0075   0.0559   0.1078   0.3169   0.4135   0.4705   0.4990
     0.5266   0.5518   0.5778   0.6057   0.6291   0.6443   0.6965   0.7461
     0.8127   0.8578   0.9234   0.9777   1.0016   1.0200   1.0666   1.1027
     1.1525   1.1937   1.2188   1.2501   1.2755   1.2860   1.3613   1.3666
     1.3946   1.4289   1.4428   1.4819   1.5109   1.5301   1.5547   1.6227
     1.6346   1.6436   1.6521   1.6812   1.7094   1.7200   1.7501   1.7551
     1.7889   1.8176   1.8567   1.8629   1.9021   1.9301   1.9521   1.9899
     2.0076   2.0578   2.0992   2.1346   2.2556   2.3624   2.4265   2.5487

          k = 0.3750-0.3750 0.1250 (132616 PWs)   bands (ev):

   -18.5301 -18.4765 -18.4717 -18.3189 -18.3085 -18.3033 -18.3016 -18.3001
   -18.2985 -18.2949 -18.2937 -18.2931 -18.2929 -18.2878 -18.2854 -18.2823
   -18.2802 -18.2794 -18.2779 -18.2681 -18.2592 -18.2557 -18.2552 -18.2495
   -18.2478 -18.2476 -18.2448 -18.2445 -18.2411 -18.2401 -18.2383 -18.2381
   -18.2346 -18.2335 -18.2330 -18.2290 -18.2282 -18.2252 -18.2213 -18.2209
   -18.2133 -18.2131 -18.2099 -18.2046 -18.1998 -18.1958 -18.1870 -18.1472
    -9.4058  -9.3612  -9.2889  -9.2409  -9.1912  -9.1360  -9.0614  -9.0460
    -8.9957  -8.9521  -8.9253  -8.9058  -8.8777  -8.8561  -8.8273  -8.7916
    -8.7866  -8.7524  -8.7295  -8.7020  -8.6503  -8.6378  -8.5669  -8.5133
    -5.2978  -5.2838  -5.2733  -5.2485  -5.2457  -5.2377  -5.2333  -5.2263
    -5.2240  -5.1078  -5.0919  -5.0863  -5.0184  -5.0134  -5.0088  -5.0078
    -5.0008  -4.9994  -4.9981  -4.9965  -4.9874  -4.9492  -4.9426  -4.9284
    -4.2025  -4.0661  -3.9017  -3.7520  -3.6598  -3.5067  -3.3377  -3.1913
    -0.6960  -0.6339  -0.5425  -0.4350  -0.3087  -0.2618  -0.1709  -0.1335
    -0.0680   0.0272   0.0902   0.1151   0.3146   0.4038   0.4654   0.5036
     0.5327   0.5426   0.5854   0.6063   0.6266   0.6636   0.6913   0.7477
     0.8069   0.8733   0.9311   0.9838   1.0241   1.0384   1.0891   1.1165
     1.1295   1.1846   1.2189   1.2648   1.3009   1.3064   1.3389   1.3560
     1.4035   1.4211   1.4646   1.4743   1.5154   1.5314   1.5760   1.5881
     1.6067   1.6324   1.6443   1.6871   1.7048   1.7223   1.7615   1.7797
     1.7839   1.8160   1.8365   1.8722   1.8959   1.9117   1.9487   1.9993
     2.0210   2.0332   2.0703   2.1784   2.2509   2.3950   2.4316   2.5110

          k =-0.3750-0.3750-0.1250 (132616 PWs)   bands (ev):

   -18.5301 -18.4765 -18.4717 -18.3189 -18.3085 -18.3033 -18.3016 -18.3001
   -18.2985 -18.2949 -18.2937 -18.2931 -18.2929 -18.2878 -18.2854 -18.2823
   -18.2802 -18.2794 -18.2779 -18.2681 -18.2592 -18.2557 -18.2552 -18.2495
   -18.2478 -18.2476 -18.2448 -18.2445 -18.2411 -18.2401 -18.2383 -18.2381
   -18.2346 -18.2335 -18.2330 -18.2290 -18.2282 -18.2252 -18.2213 -18.2209
   -18.2133 -18.2131 -18.2099 -18.2046 -18.1998 -18.1958 -18.1870 -18.1472
    -9.4089  -9.3518  -9.3016  -9.2382  -9.1768  -9.1420  -9.0756  -9.0422
    -8.9940  -8.9454  -8.9225  -8.9105  -8.8787  -8.8576  -8.8264  -8.7890
    -8.7838  -8.7567  -8.7301  -8.7030  -8.6487  -8.6380  -8.5672  -8.5132
    -5.2976  -5.2838  -5.2734  -5.2486  -5.2458  -5.2377  -5.2333  -5.2263
    -5.2240  -5.1078  -5.0920  -5.0863  -5.0190  -5.0127  -5.0088  -5.0076
    -5.0014  -5.0001  -4.9975  -4.9959  -4.9876  -4.9492  -4.9426  -4.9284
    -4.2158  -4.0009  -3.9717  -3.7304  -3.6706  -3.4486  -3.4044  -3.1756
    -0.6875  -0.6313  -0.5409  -0.4350  -0.3387  -0.2388  -0.1709  -0.1307
    -0.0453   0.0172   0.0453   0.1007   0.3200   0.4368   0.4639   0.4932
     0.5419   0.5530   0.5712   0.6270   0.6343   0.6569   0.7089   0.7251
     0.7824   0.9077   0.9263   0.9801   0.9986   1.0371   1.0900   1.1166
     1.1562   1.1914   1.2433   1.2670   1.2719   1.2976   1.3368   1.3760
     1.3879   1.4168   1.4585   1.4992   1.5122   1.5226   1.5635   1.5999
     1.6097   1.6312   1.6555   1.6925   1.7029   1.7331   1.7417   1.7748
     1.7875   1.8010   1.8193   1.8668   1.8950   1.9143   1.9527   1.9740
     2.0056   2.0388   2.1083   2.1906   2.2879   2.3523   2.4257   2.5160

          k = 0.3750 0.3750-0.1250 (132616 PWs)   bands (ev):

   -18.5301 -18.4765 -18.4717 -18.3189 -18.3085 -18.3033 -18.3016 -18.3001
   -18.2985 -18.2949 -18.2937 -18.2931 -18.2929 -18.2878 -18.2854 -18.2823
   -18.2802 -18.2794 -18.2779 -18.2681 -18.2592 -18.2557 -18.2552 -18.2495
   -18.2478 -18.2476 -18.2448 -18.2445 -18.2411 -18.2401 -18.2383 -18.2381
   -18.2346 -18.2335 -18.2330 -18.2290 -18.2282 -18.2252 -18.2213 -18.2209
   -18.2133 -18.2131 -18.2099 -18.2046 -18.1998 -18.1958 -18.1870 -18.1472
    -9.4081  -9.3513  -9.3031  -9.2375  -9.1884  -9.1307  -9.0733  -9.0365
    -8.9977  -8.9514  -8.9274  -8.9056  -8.8796  -8.8566  -8.8268  -8.7862
    -8.7846  -8.7581  -8.7261  -8.7060  -8.6490  -8.6376  -8.5670  -8.5134
    -5.2976  -5.2838  -5.2734  -5.2486  -5.2458  -5.2377  -5.2333  -5.2263
    -5.2240  -5.1077  -5.0920  -5.0864  -5.0188  -5.0128  -5.0091  -5.0074
    -5.0010  -5.0003  -4.9979  -4.9958  -4.9874  -4.9492  -4.9426  -4.9284
    -4.2112  -3.9977  -3.9776  -3.7609  -3.6449  -3.4391  -3.4078  -3.1780
    -0.6925  -0.6397  -0.5465  -0.4409  -0.3349  -0.2358  -0.1604  -0.1237
    -0.0375   0.0096   0.0867   0.0970   0.3156   0.4224   0.4551   0.4869
     0.5318   0.5404   0.5672   0.6326   0.6456   0.6674   0.6962   0.7467
     0.7864   0.8992   0.9064   0.9720   0.9954   1.0240   1.1035   1.1310
     1.1599   1.1941   1.2304   1.2640   1.2860   1.3105   1.3475   1.3631
     1.3811   1.4216   1.4593   1.4807   1.5086   1.5308   1.5478   1.5931
     1.6105   1.6226   1.6651   1.6808   1.7145   1.7258   1.7539   1.7658
     1.7886   1.8047   1.8512   1.8819   1.8954   1.9243   1.9525   1.9733
     1.9937   2.0327   2.0989   2.1656   2.2886   2.3659   2.4216   2.5371

          k =-0.3750 0.3750 0.1250 (132616 PWs)   bands (ev):

   -18.5301 -18.4765 -18.4717 -18.3189 -18.3085 -18.3033 -18.3016 -18.3001
   -18.2985 -18.2949 -18.2937 -18.2931 -18.2929 -18.2878 -18.2854 -18.2823
   -18.2802 -18.2794 -18.2779 -18.2681 -18.2592 -18.2557 -18.2552 -18.2495
   -18.2478 -18.2476 -18.2448 -18.2445 -18.2411 -18.2401 -18.2383 -18.2381
   -18.2346 -18.2335 -18.2330 -18.2290 -18.2282 -18.2252 -18.2213 -18.2209
   -18.2133 -18.2131 -18.2099 -18.2046 -18.1998 -18.1958 -18.1870 -18.1472
    -9.4034  -9.3629  -9.2980  -9.2324  -9.1810  -9.1449  -9.0733  -9.0350
    -8.9967  -8.9474  -8.9251  -8.9113  -8.8780  -8.8583  -8.8261  -8.7880
    -8.7861  -8.7552  -8.7257  -8.7040  -8.6510  -8.6379  -8.5669  -8.5132
    -5.2978  -5.2837  -5.2733  -5.2485  -5.2457  -5.2377  -5.2333  -5.2264
    -5.2240  -5.1077  -5.0919  -5.0864  -5.0185  -5.0134  -5.0093  -5.0077
    -5.0003  -4.9996  -4.9979  -4.9965  -4.9876  -4.9492  -4.9426  -4.9284
    -4.1999  -4.0669  -3.9039  -3.7760  -3.6253  -3.5119  -3.3380  -3.1962
    -0.6849  -0.6348  -0.5487  -0.4379  -0.3012  -0.2711  -0.1791  -0.1241
    -0.0708   0.0294   0.0767   0.1151   0.3326   0.4117   0.4582   0.4977
     0.5174   0.5416   0.5792   0.5954   0.6559   0.6752   0.7000   0.7333
     0.8076   0.8861   0.9340   0.9765   1.0077   1.0509   1.0751   1.1312
     1.1400   1.1759   1.2150   1.2824   1.2874   1.3221   1.3422   1.3701
     1.3854   1.4162   1.4611   1.4928   1.5045   1.5334   1.5585   1.5741
     1.6020   1.6205   1.6450   1.6864   1.7077   1.7386   1.7545   1.7708
     1.7955   1.8120   1.8345   1.8661   1.8943   1.9210   1.9505   1.9886
     2.0207   2.0448   2.0822   2.1701   2.2857   2.3790   2.4363   2.4897

          k =-0.3750-0.3750 0.3750 (132612 PWs)   bands (ev):

   -18.5301 -18.4765 -18.4717 -18.3189 -18.3085 -18.3033 -18.3016 -18.3001
   -18.2985 -18.2949 -18.2937 -18.2931 -18.2929 -18.2878 -18.2854 -18.2823
   -18.2802 -18.2794 -18.2779 -18.2681 -18.2593 -18.2557 -18.2552 -18.2495
   -18.2478 -18.2476 -18.2448 -18.2445 -18.2411 -18.2401 -18.2383 -18.2381
   -18.2346 -18.2335 -18.2330 -18.2290 -18.2282 -18.2252 -18.2213 -18.2209
   -18.2133 -18.2131 -18.2099 -18.2046 -18.1998 -18.1958 -18.1870 -18.1472
    -9.3953  -9.3468  -9.2897  -9.2565  -9.2012  -9.1379  -9.0981  -9.0480
    -8.9935  -8.9520  -8.9228  -8.8933  -8.8552  -8.8345  -8.8133  -8.7959
    -8.7850  -8.7643  -8.7367  -8.7093  -8.6513  -8.6364  -8.5683  -8.5163
    -5.2976  -5.2838  -5.2734  -5.2487  -5.2458  -5.2377  -5.2333  -5.2264
    -5.2239  -5.1075  -5.0919  -5.0862  -5.0192  -5.0129  -5.0099  -5.0069
    -5.0018  -5.0000  -4.9983  -4.9956  -4.9869  -4.9490  -4.9421  -4.9284
    -4.0833  -3.9288  -3.8889  -3.8098  -3.6509  -3.5842  -3.5228  -3.3598
    -0.4180  -0.4025  -0.3127  -0.2674  -0.2596  -0.1736  -0.1212  -0.0488
    -0.0326   0.0174   0.0974   0.2386   0.2832   0.3528   0.3973   0.4297
     0.4588   0.4962   0.5156   0.5530   0.5747   0.6103   0.6423   0.7164
     0.8344   0.8809   0.9201   0.9511   1.0007   1.0190   1.0244   1.0664
     1.1085   1.1529   1.1645   1.1892   1.2224   1.2373   1.2885   1.3225
     1.3568   1.3827   1.4282   1.4644   1.5044   1.5291   1.5822   1.6059
     1.6352   1.6712   1.6966   1.7198   1.7331   1.7465   1.7669   1.7873
     1.8036   1.8234   1.8534   1.8777   1.9064   1.9199   1.9328   1.9540
     1.9732   1.9989   2.0376   2.0689   2.1097   2.1748   2.2529   2.3058

          k =-0.3750 0.3750-0.3750 (132612 PWs)   bands (ev):

   -18.5301 -18.4765 -18.4717 -18.3189 -18.3085 -18.3033 -18.3016 -18.3001
   -18.2985 -18.2949 -18.2937 -18.2931 -18.2929 -18.2878 -18.2854 -18.2823
   -18.2802 -18.2794 -18.2779 -18.2681 -18.2593 -18.2557 -18.2552 -18.2495
   -18.2478 -18.2476 -18.2448 -18.2445 -18.2411 -18.2401 -18.2383 -18.2381
   -18.2346 -18.2335 -18.2330 -18.2290 -18.2282 -18.2252 -18.2213 -18.2209
   -18.2133 -18.2131 -18.2099 -18.2046 -18.1998 -18.1958 -18.1870 -18.1472
    -9.3956  -9.3483  -9.2795  -9.2660  -9.1998  -9.1409  -9.0890  -9.0578
    -8.9901  -8.9545  -8.9217  -8.8919  -8.8507  -8.8309  -8.8197  -8.8001
    -8.7882  -8.7578  -8.7394  -8.7067  -8.6519  -8.6371  -8.5681  -8.5162
    -5.2979  -5.2838  -5.2733  -5.2486  -5.2457  -5.2377  -5.2333  -5.2264
    -5.2239  -5.1077  -5.0919  -5.0862  -5.0189  -5.0133  -5.0095  -5.0072
    -5.0016  -4.9995  -4.9986  -4.9958  -4.9870  -4.9489  -4.9421  -4.9284
    -4.0832  -3.9609  -3.8438  -3.7998  -3.6711  -3.6110  -3.4954  -3.3636
    -0.4377  -0.3686  -0.3030  -0.2870  -0.1914  -0.1738  -0.1514  -0.1126
    -0.0397  -0.0025   0.1285   0.2282   0.3075   0.3589   0.3986   0.4363
     0.4673   0.4916   0.5240   0.5456   0.5547   0.6037   0.6428   0.7194
     0.8354   0.8815   0.9086   0.9732   1.0035   1.0172   1.0508   1.0781
     1.0881   1.1327   1.1683   1.1925   1.2077   1.2451   1.2758   1.2907
     1.3724   1.3902   1.4346   1.4676   1.5057   1.5349   1.5806   1.6092
     1.6512   1.6667   1.6976   1.7125   1.7431   1.7576   1.7702   1.7792
     1.8018   1.8288   1.8453   1.8701   1.8949   1.9153   1.9390   1.9592
     1.9744   2.0107   2.0390   2.0544   2.1217   2.1795   2.2350   2.3007

          k = 0.3750-0.3750-0.3750 (132612 PWs)   bands (ev):

   -18.5301 -18.4765 -18.4717 -18.3189 -18.3085 -18.3033 -18.3016 -18.3001
   -18.2985 -18.2949 -18.2937 -18.2931 -18.2929 -18.2878 -18.2854 -18.2823
   -18.2802 -18.2794 -18.2779 -18.2681 -18.2593 -18.2557 -18.2552 -18.2495
   -18.2478 -18.2476 -18.2448 -18.2445 -18.2411 -18.2401 -18.2383 -18.2381
   -18.2346 -18.2335 -18.2330 -18.2290 -18.2282 -18.2252 -18.2213 -18.2209
   -18.2133 -18.2131 -18.2099 -18.2046 -18.1998 -18.1958 -18.1870 -18.1472
    -9.3923  -9.3512  -9.2962  -9.2503  -9.1895  -9.1476  -9.0993  -9.0496
    -8.9934  -8.9485  -8.9217  -8.8956  -8.8535  -8.8373  -8.8131  -8.7968
    -8.7858  -8.7627  -8.7350  -8.7084  -8.6524  -8.6373  -8.5682  -8.5161
    -5.2979  -5.2838  -5.2733  -5.2485  -5.2457  -5.2377  -5.2333  -5.2264
    -5.2239  -5.1076  -5.0919  -5.0862  -5.0190  -5.0133  -5.0098  -5.0073
    -5.0012  -4.9997  -4.9983  -4.9959  -4.9870  -4.9489  -4.9421  -4.9284
    -4.0740  -3.9626  -3.8801  -3.7893  -3.6589  -3.5806  -3.5122  -3.3714
    -0.3976  -0.3796  -0.3328  -0.2691  -0.2325  -0.1769  -0.1573  -0.0878
    -0.0349   0.0333   0.0862   0.2114   0.3177   0.3489   0.3870   0.4487
     0.4779   0.4914   0.5220   0.5562   0.5877   0.6039   0.6391   0.6923
     0.8495   0.8816   0.9227   0.9720   0.9959   1.0195   1.0404   1.0691
     1.0987   1.1336   1.1619   1.1898   1.2082   1.2359   1.2810   1.3361
     1.3566   1.3848   1.4350   1.4614   1.5083   1.5381   1.5720   1.5854
     1.6532   1.6672   1.6844   1.7049   1.7374   1.7517   1.7742   1.7908
     1.8045   1.8290   1.8448   1.8795   1.8992   1.9034   1.9351   1.9529
     1.9861   2.0310   2.0492   2.0998   2.1116   2.1303   2.2446   2.2917

     highest occupied level (ev):     3.0895

!    total energy              =   -2256.30909740 Ry
     estimated scf accuracy    <          5.3E-11 Ry

     The total energy is the sum of the following terms:
     one-electron contribution =    -981.15690035 Ry
     hartree contribution      =     618.55548902 Ry
     xc contribution           =    -647.45922288 Ry
     ewald contribution        =   -1246.24846320 Ry

     convergence has been achieved in  15 iterations

     Forces acting on atoms (cartesian axes, Ry/au):

     atom    1 type  1   force =     0.00684669   -0.00091058    0.00604698
     atom    2 type  2   force =    -0.00876685   -0.01197550   -0.00011345
     atom    3 type  3   force =    -0.00387134   -0.00500539    0.00142627
     atom    4 type  3   force =    -0.00156726   -0.00446862   -0.00879018
     atom    5 type  3   force =    -0.00457647   -0.00516213   -0.00842090
     atom    6 type  1   force =     0.00029533   -0.00016661   -0.00298651
     atom    7 type  2   force =     0.00244918   -0.00210698    0.01784458
     atom    8 type  3   force =    -0.00024156    0.00119700    0.00374928
     atom    9 type  3   force =    -0.00113543    0.00442143    0.00021117
     atom   10 type  3   force =    -0.00044738   -0.00862440    0.00042755
     atom   11 type  1   force =     0.01475460    0.01430938    0.00107374
     atom   12 type  2   force =     0.00565867    0.01992930    0.01490750
     atom   13 type  3   force =    -0.01234134   -0.00257121   -0.00546389
     atom   14 type  3   force =    -0.01777467   -0.02117360    0.01058730
     atom   15 type  3   force =     0.00504695    0.01081157   -0.00516751
     atom   16 type  1   force =    -0.00203729    0.00033120    0.00041252
     atom   17 type  2   force =     0.00268296    0.00487962   -0.01282083
     atom   18 type  3   force =    -0.00607302    0.00299657    0.00074341
     atom   19 type  3   force =     0.00257116   -0.00173615   -0.00791516
     atom   20 type  3   force =     0.00384549    0.00045864   -0.00165711
     atom   21 type  1   force =     0.00107564   -0.00137783    0.00246351
     atom   22 type  2   force =     0.00309689    0.00121523    0.01390722
     atom   23 type  3   force =    -0.00021333   -0.00000787    0.00047415
     atom   24 type  3   force =    -0.00315295    0.00417867   -0.00741259
     atom   25 type  3   force =     0.00533149    0.00463422    0.00094114
     atom   26 type  1   force =    -0.00186211    0.00292341   -0.00259633
     atom   27 type  2   force =    -0.00051126    0.01460719   -0.01757984
     atom   28 type  3   force =     0.00261315    0.00483401    0.00375335
     atom   29 type  3   force =    -0.00059391   -0.00054236   -0.00509184
     atom   30 type  3   force =    -0.00173681   -0.00596363    0.00739842
     atom   31 type  1   force =     0.00868969   -0.00122199   -0.00013638
     atom   32 type  2   force =    -0.01644815    0.00427565   -0.00054755
     atom   33 type  3   force =     0.02531503   -0.00470045    0.00133774
     atom   34 type  3   force =    -0.00731682    0.00562954   -0.00629828
     atom   35 type  3   force =    -0.00207485   -0.00067169   -0.00219049
     atom   36 type  1   force =     0.01047742    0.00774997    0.00027401
     atom   37 type  2   force =    -0.00405745   -0.01473184    0.00328061
     atom   38 type  3   force =     0.01530941    0.00207238    0.00060857
     atom   39 type  3   force =    -0.01383569   -0.00963467   -0.00276675
     atom   40 type  3   force =    -0.00542381   -0.00870147    0.00608660

     Total force =     0.083454     Total SCF correction =     0.000041


     Computing stress (Cartesian axis) and pressure

          total   stress  (Ry/bohr**3)                   (kbar)     P=       -8.08
  -0.00004802   0.00000543   0.00000379           -7.06        0.80        0.56
   0.00000543  -0.00006309   0.00000019            0.80       -9.28        0.03
   0.00000379   0.00000019  -0.00005360            0.56        0.03       -7.88

 
     init_run     :     19.62s CPU     17.05s WALL (       1 calls)
     electrons    :    201.20s CPU    212.07s WALL (       1 calls)
     forces       :      8.83s CPU      3.95s WALL (       1 calls)
     stress       :     31.89s CPU     31.35s WALL (       1 calls)

     Called by init_run:
     wfcinit      :     11.81s CPU     13.96s WALL (       1 calls)
                                       13.96s GPU  (       1 calls)
     potinit      :      4.46s CPU      1.42s WALL (       1 calls)
     hinit0       :      2.78s CPU      0.99s WALL (       1 calls)

     Called by electrons:
     c_bands      :    120.09s CPU    169.48s WALL (      16 calls)
     sum_band     :     21.96s CPU     21.13s WALL (      16 calls)
                                       21.13s GPU  (      16 calls)
     v_of_rho     :     54.90s CPU     16.70s WALL (      16 calls)
     mix_rho      :      6.47s CPU      5.10s WALL (      16 calls)

     Called by c_bands:
     init_us_2    :      2.39s CPU      3.16s WALL (     280 calls)
                                        3.15s GPU  (     280 calls)
     cegterg      :     80.46s CPU    127.13s WALL (     128 calls)

     Called by *egterg:
     cdiaghg      :     13.79s CPU     25.54s WALL (     632 calls)
                                       25.50s GPU  (     632 calls)
     h_psi        :     54.54s CPU     73.34s WALL (     648 calls)
                                       72.90s GPU  (     648 calls)
     g_psi        :      0.00s CPU      0.36s WALL (     512 calls)
                                        0.35s GPU  (     512 calls)

     Called by h_psi:
     h_psi:calbec :      0.32s CPU      9.88s WALL (     648 calls)
                                        9.87s GPU  (     648 calls)
     vloc_psi     :     39.85s CPU     53.52s WALL (     648 calls)
                                       52.61s GPU  (     648 calls)
     add_vuspsi   :      0.32s CPU      9.85s WALL (     648 calls)
                                        9.84s GPU  (     648 calls)

     General routines
     calbec       :      0.32s CPU      0.40s WALL (     688 calls)
     fft          :     25.45s CPU      6.51s WALL (     185 calls)
                                        0.00s GPU  (       6 calls)
     ffts         :      2.58s CPU      0.68s WALL (      16 calls)
     fftw         :      0.61s CPU     62.07s WALL (   10386 calls)
                                       46.33s GPU  (   10386 calls)
 
     Parallel routines
 
     PWSCF        :   4m22.52s CPU   4m25.53s WALL

 
   This run was terminated on:   0: 6: 9  23Apr2021            

=------------------------------------------------------------------------------=
   JOB DONE.
=------------------------------------------------------------------------------=
