
     Program PWSCF v.6.7MaX starts on 22Apr2021 at 21:28:54 

     This program is part of the open-source Quantum ESPRESSO suite
     for quantum simulation of materials; please cite
         "P. Giannozzi et al., J. Phys.:Condens. Matter 21 395502 (2009);
         "P. Giannozzi et al., J. Phys.:Condens. Matter 29 465901 (2017);
         "P. Giannozzi et al., J. Chem. Phys. 152 154105 (2020);
          URL http://www.quantum-espresso.org", 
     in publications or presentations arising from this work. More details at
     http://www.quantum-espresso.org/quote

     Parallel version (MPI & OpenMP), running on      16 processor cores
     Number of MPI processes:                 4
     Threads/MPI process:                     4

     MPI processes distributed on     1 nodes
     K-points division:     npool     =       4
     Reading input from ESP_15.pwi
Warning: card &CELL ignored
Warning: card / ignored

     Current dimensions of program PWSCF are:
     Max number of different atomic species (ntypx) = 10
     Max number of k-points (npk) =  40000
     Max angular momentum in pseudopotentials (lmaxx) =  3
     Message from routine read_pp_mesh:
     mesh size missing, using the one in header
     Message from routine read_pp_mesh:
     mesh size missing, using the one in header
     Message from routine read_pp_mesh:
     mesh size missing, using the one in header

     Subspace diagonalization in iterative solution of the eigenvalue problem:
     a serial algorithm will be used

 
     G-vector sticks info
     --------------------
     sticks:   dense  smooth     PW     G-vecs:    dense   smooth      PW
     Sum       12589   12589   3289              1061107  1061107  140905
 
     Using Slab Decomposition
 


     bravais-lattice index     =            0
     lattice parameter (alat)  =      23.7585  a.u.
     unit-cell volume          =   13410.8736 (a.u.)^3
     number of atoms/cell      =           40
     number of atomic types    =            3
     number of electrons       =       352.00
     number of Kohn-Sham states=          176
     kinetic-energy cutoff     =      70.0000  Ry
     charge density cutoff     =     280.0000  Ry
     scf convergence threshold =      1.0E-10
     mixing beta               =       0.7000
     number of iterations used =            8  plain     mixing
     Exchange-correlation= PBESOL
                           (   1   4  10   8   0   0   0)

     GPU acceleration is ACTIVE.


     celldm(1)=  23.758500  celldm(2)=   0.000000  celldm(3)=   0.000000
     celldm(4)=   0.000000  celldm(5)=   0.000000  celldm(6)=   0.000000

     crystal axes: (cart. coord. in units of alat)
               a(1) = (   1.000000   0.000000   0.000000 )  
               a(2) = (   0.000000   1.000000   0.000000 )  
               a(3) = (   0.000000   0.000000   1.000000 )  

     reciprocal axes: (cart. coord. in units 2 pi/alat)
               b(1) = (  1.000000  0.000000  0.000000 )  
               b(2) = (  0.000000  1.000000  0.000000 )  
               b(3) = (  0.000000  0.000000  1.000000 )  


     PseudoPot. # 1 for Cs read from file:
     /m100/home/userexternal/lmonacel/espresso/pseudo/Cs-nc-pbesol.upf
     MD5 check sum: 9d2f2206a14dc5b3b3f3fbfae186bed4
     Pseudo is Norm-conserving + core correction, Zval =  9.0
     Generated using ONCVPSP code by D. R. Hamann
     Using radial grid of 2384 points,  8 beta functions with: 
                l(1) =   0
                l(2) =   0
                l(3) =   1
                l(4) =   1
                l(5) =   2
                l(6) =   2
                l(7) =   3
                l(8) =   3

     PseudoPot. # 2 for Sn read from file:
     /m100/home/userexternal/lmonacel/espresso/pseudo/Sn-nc-pbesol.upf
     MD5 check sum: c2995d571af40102bfea7461443d92cf
     Pseudo is Norm-conserving + core correction, Zval = 14.0
     Generated using ONCVPSP code by D. R. Hamann
     Using radial grid of 1628 points,  6 beta functions with: 
                l(1) =   0
                l(2) =   0
                l(3) =   1
                l(4) =   1
                l(5) =   2
                l(6) =   2

     PseudoPot. # 3 for I  read from file:
     /m100/home/userexternal/lmonacel/espresso/pseudo/I-nc-pbesol.upf
     MD5 check sum: 80ed5ceb2eb9c553cfb6760a299d9c5b
     Pseudo is Norm-conserving + core correction, Zval =  7.0
     Generated using ONCVPSP code by D. R. Hamann
     Using radial grid of 1182 points,  6 beta functions with: 
                l(1) =   0
                l(2) =   0
                l(3) =   1
                l(4) =   1
                l(5) =   2
                l(6) =   2

     atomic species   valence    mass     pseudopotential
        Cs             9.00   132.90545     Cs( 1.00)
        Sn            14.00   118.71000     Sn( 1.00)
        I              7.00   126.90447     I ( 1.00)

     No symmetry found



   Cartesian axes

     site n.     atom                  positions (alat units)
         1           Cs  tau(   1) = (   0.2595796   0.2426274   0.2597982  )
         2           Sn  tau(   2) = (   0.0154240   0.0004364  -0.0149601  )
         3           I   tau(   3) = (   0.2743351   0.0073250   0.0095681  )
         4           I   tau(   4) = (  -0.0136642   0.0067418   0.2324908  )
         5           I   tau(   5) = (   0.0110460   0.2534310  -0.0209436  )
         6           Cs  tau(   6) = (   0.2392422   0.2761570   0.7340869  )
         7           Sn  tau(   7) = (   0.0189044  -0.0080346   0.4963103  )
         8           I   tau(   8) = (   0.2590912  -0.0153952   0.4866778  )
         9           I   tau(   9) = (   0.0203235   0.0389175   0.7322564  )
        10           I   tau(  10) = (  -0.0096061   0.2581797   0.4858463  )
        11           Cs  tau(  11) = (   0.2257815   0.7383223   0.2668941  )
        12           Sn  tau(  12) = (  -0.0190961   0.5037624   0.0012936  )
        13           I   tau(  13) = (   0.2386318   0.5132560  -0.0359181  )
        14           I   tau(  14) = (   0.0244819   0.5104396   0.2375298  )
        15           I   tau(  15) = (  -0.0109520   0.7601255  -0.0398314  )
        16           Cs  tau(  16) = (   0.2402376   0.7272483   0.7585028  )
        17           Sn  tau(  17) = (  -0.0207045   0.4867565   0.5055542  )
        18           I   tau(  18) = (   0.2339719   0.4797881   0.5230236  )
        19           I   tau(  19) = (  -0.0138887   0.5085832   0.7318641  )
        20           I   tau(  20) = (   0.0086401   0.7625830   0.5261505  )
        21           Cs  tau(  21) = (   0.7714893   0.2527946   0.2146642  )
        22           Sn  tau(  22) = (   0.5063524  -0.0170950   0.0128701  )
        23           I   tau(  23) = (   0.7638217  -0.0073911  -0.0143670  )
        24           I   tau(  24) = (   0.5673082   0.0111521   0.2614191  )
        25           I   tau(  25) = (   0.5267271   0.2441847   0.0151880  )
        26           Cs  tau(  26) = (   0.7049799   0.2290117   0.7573897  )
        27           Sn  tau(  27) = (   0.5267113  -0.0080472   0.5145218  )
        28           I   tau(  28) = (   0.7671528  -0.0271669   0.5289783  )
        29           I   tau(  29) = (   0.4730560  -0.0234622   0.7588081  )
        30           I   tau(  30) = (   0.5312605   0.2454966   0.5146233  )
        31           Cs  tau(  31) = (   0.7821901   0.7622222   0.2819060  )
        32           Sn  tau(  32) = (   0.4797548   0.4873204   0.0175655  )
        33           I   tau(  33) = (   0.7229136   0.5040093  -0.0109628  )
        34           I   tau(  34) = (   0.4590820   0.5053454   0.2630736  )
        35           I   tau(  35) = (   0.4860080   0.7393584   0.0060937  )
        36           Cs  tau(  36) = (   0.7663237   0.7985785   0.7431791  )
        37           Sn  tau(  37) = (   0.4787528   0.4802251   0.5168847  )
        38           I   tau(  38) = (   0.7310041   0.4738575   0.4843498  )
        39           I   tau(  39) = (   0.5137940   0.5374209   0.7625496  )
        40           I   tau(  40) = (   0.4591221   0.7548374   0.4975257  )

     number of k points=    32
                       cart. coord. in units 2pi/alat
        k(    1) = (   0.1250000   0.1250000   0.1250000), wk =   0.0625000
        k(    2) = (   0.1250000   0.1250000   0.3750000), wk =   0.0625000
        k(    3) = (   0.1250000   0.3750000   0.3750000), wk =   0.0625000
        k(    4) = (   0.3750000   0.3750000   0.3750000), wk =   0.0625000
        k(    5) = (  -0.1250000  -0.1250000   0.1250000), wk =   0.0625000
        k(    6) = (  -0.1250000   0.1250000  -0.1250000), wk =   0.0625000
        k(    7) = (   0.1250000  -0.1250000  -0.1250000), wk =   0.0625000
        k(    8) = (  -0.1250000  -0.1250000   0.3750000), wk =   0.0625000
        k(    9) = (  -0.1250000   0.1250000  -0.3750000), wk =   0.0625000
        k(   10) = (   0.1250000  -0.1250000  -0.3750000), wk =   0.0625000
        k(   11) = (   0.3750000  -0.1250000   0.1250000), wk =   0.0625000
        k(   12) = (  -0.3750000  -0.1250000  -0.1250000), wk =   0.0625000
        k(   13) = (   0.3750000   0.1250000  -0.1250000), wk =   0.0625000
        k(   14) = (  -0.3750000   0.1250000   0.1250000), wk =   0.0625000
        k(   15) = (  -0.1250000   0.3750000   0.1250000), wk =   0.0625000
        k(   16) = (  -0.1250000  -0.3750000  -0.1250000), wk =   0.0625000
        k(   17) = (   0.1250000   0.3750000  -0.1250000), wk =   0.0625000
        k(   18) = (   0.1250000  -0.3750000   0.1250000), wk =   0.0625000
        k(   19) = (  -0.1250000  -0.3750000   0.3750000), wk =   0.0625000
        k(   20) = (  -0.1250000   0.3750000  -0.3750000), wk =   0.0625000
        k(   21) = (   0.1250000  -0.3750000  -0.3750000), wk =   0.0625000
        k(   22) = (   0.3750000   0.1250000  -0.3750000), wk =   0.0625000
        k(   23) = (  -0.3750000  -0.1250000  -0.3750000), wk =   0.0625000
        k(   24) = (   0.3750000  -0.1250000   0.3750000), wk =   0.0625000
        k(   25) = (  -0.3750000   0.1250000   0.3750000), wk =   0.0625000
        k(   26) = (   0.3750000  -0.3750000   0.1250000), wk =   0.0625000
        k(   27) = (  -0.3750000  -0.3750000  -0.1250000), wk =   0.0625000
        k(   28) = (   0.3750000   0.3750000  -0.1250000), wk =   0.0625000
        k(   29) = (  -0.3750000   0.3750000   0.1250000), wk =   0.0625000
        k(   30) = (  -0.3750000  -0.3750000   0.3750000), wk =   0.0625000
        k(   31) = (  -0.3750000   0.3750000  -0.3750000), wk =   0.0625000
        k(   32) = (   0.3750000  -0.3750000  -0.3750000), wk =   0.0625000

     Dense  grid:  1061107 G-vectors     FFT dimensions: ( 128, 128, 128)

     Estimated max dynamical RAM per process >       6.82 GB

     Estimated total dynamical RAM >      27.27 GB

     Initial potential from superposition of free atoms

     starting charge  351.69472, renormalised to  352.00000
     Starting wfcs are  208 randomized atomic wfcs

     total cpu time spent up to now is       17.5 secs

     Self-consistent Calculation

     iteration #  1     ecut=    70.00 Ry     beta= 0.70
     Davidson diagonalization with overlap
     ethr =  1.00E-02,  avg # of iterations =  2.0

     Threshold (ethr) on eigenvalues was too large:
     Diagonalizing with lowered threshold

     Davidson diagonalization with overlap
     ethr =  2.20E-04,  avg # of iterations =  4.0

     total cpu time spent up to now is       38.6 secs

     total energy              =   -2256.00755337 Ry
     estimated scf accuracy    <       0.67286816 Ry

     iteration #  2     ecut=    70.00 Ry     beta= 0.70
     Davidson diagonalization with overlap
     ethr =  1.91E-04,  avg # of iterations =  3.2

     total cpu time spent up to now is       51.3 secs

     total energy              =   -2256.21187905 Ry
     estimated scf accuracy    <       0.32560859 Ry

     iteration #  3     ecut=    70.00 Ry     beta= 0.70
     Davidson diagonalization with overlap
     ethr =  9.25E-05,  avg # of iterations =  2.9

     total cpu time spent up to now is       63.1 secs

     total energy              =   -2256.27428518 Ry
     estimated scf accuracy    <       0.02525519 Ry

     iteration #  4     ecut=    70.00 Ry     beta= 0.70
     Davidson diagonalization with overlap
     ethr =  7.17E-06,  avg # of iterations =  4.2

     total cpu time spent up to now is       76.3 secs

     total energy              =   -2256.28298722 Ry
     estimated scf accuracy    <       0.00621856 Ry

     iteration #  5     ecut=    70.00 Ry     beta= 0.70
     Davidson diagonalization with overlap
     ethr =  1.77E-06,  avg # of iterations =  3.0

     total cpu time spent up to now is       88.6 secs

     total energy              =   -2256.28420223 Ry
     estimated scf accuracy    <       0.00128954 Ry

     iteration #  6     ecut=    70.00 Ry     beta= 0.70
     Davidson diagonalization with overlap
     ethr =  3.66E-07,  avg # of iterations =  3.1

     total cpu time spent up to now is      100.8 secs

     total energy              =   -2256.28442627 Ry
     estimated scf accuracy    <       0.00014943 Ry

     iteration #  7     ecut=    70.00 Ry     beta= 0.70
     Davidson diagonalization with overlap
     ethr =  4.25E-08,  avg # of iterations =  4.8

     total cpu time spent up to now is      114.8 secs

     total energy              =   -2256.28448333 Ry
     estimated scf accuracy    <       0.00002221 Ry

     iteration #  8     ecut=    70.00 Ry     beta= 0.70
     Davidson diagonalization with overlap
     ethr =  6.31E-09,  avg # of iterations =  3.9

     total cpu time spent up to now is      128.4 secs

     total energy              =   -2256.28449156 Ry
     estimated scf accuracy    <       0.00000508 Ry

     iteration #  9     ecut=    70.00 Ry     beta= 0.70
     Davidson diagonalization with overlap
     ethr =  1.44E-09,  avg # of iterations =  4.1

     total cpu time spent up to now is      141.6 secs

     total energy              =   -2256.28449309 Ry
     estimated scf accuracy    <       0.00000083 Ry

     iteration # 10     ecut=    70.00 Ry     beta= 0.70
     Davidson diagonalization with overlap
     ethr =  2.37E-10,  avg # of iterations =  4.5

     total cpu time spent up to now is      156.1 secs

     total energy              =   -2256.28449339 Ry
     estimated scf accuracy    <       0.00000022 Ry

     iteration # 11     ecut=    70.00 Ry     beta= 0.70
     Davidson diagonalization with overlap
     ethr =  6.12E-11,  avg # of iterations =  5.0

     total cpu time spent up to now is      170.6 secs

     total energy              =   -2256.28449348 Ry
     estimated scf accuracy    <       0.00000002 Ry

     iteration # 12     ecut=    70.00 Ry     beta= 0.70
     Davidson diagonalization with overlap
     ethr =  6.94E-12,  avg # of iterations =  6.8

     total cpu time spent up to now is      187.9 secs

     total energy              =   -2256.28449350 Ry
     estimated scf accuracy    <       0.00000001 Ry

     iteration # 13     ecut=    70.00 Ry     beta= 0.70
     Davidson diagonalization with overlap
     ethr =  3.47E-12,  avg # of iterations =  3.3

     total cpu time spent up to now is      200.6 secs

     total energy              =   -2256.28449351 Ry
     estimated scf accuracy    <          8.6E-10 Ry

     iteration # 14     ecut=    70.00 Ry     beta= 0.70
     Davidson diagonalization with overlap
     ethr =  2.44E-13,  avg # of iterations =  6.3

     total cpu time spent up to now is      217.9 secs

     total energy              =   -2256.28449351 Ry
     estimated scf accuracy    <          2.7E-10 Ry

     iteration # 15     ecut=    70.00 Ry     beta= 0.70
     Davidson diagonalization with overlap
     ethr =  1.00E-13,  avg # of iterations =  3.4

     total cpu time spent up to now is      230.0 secs

     End of self-consistent calculation

          k = 0.1250 0.1250 0.1250 (132670 PWs)   bands (ev):

   -18.6096 -18.5655 -18.4113 -18.4008 -18.3905 -18.3847 -18.3792 -18.3737
   -18.3703 -18.3699 -18.3079 -18.2960 -18.2951 -18.2881 -18.2834 -18.2788
   -18.2364 -18.2296 -18.2220 -18.2210 -18.2193 -18.2180 -18.2169 -18.2150
   -18.2118 -18.2101 -18.2019 -18.2011 -18.1995 -18.1963 -18.1899 -18.1881
   -18.1844 -18.1803 -18.1736 -18.1714 -18.1649 -18.1648 -18.1628 -18.1621
   -18.1562 -18.1499 -18.1463 -18.1450 -18.1395 -18.1312 -18.1278 -18.1101
    -9.4718  -9.3211  -9.2423  -9.2186  -9.1295  -9.1114  -9.0791  -9.0444
    -8.9971  -8.9895  -8.9413  -8.9223  -8.8718  -8.8564  -8.8007  -8.7862
    -8.7674  -8.7590  -8.7160  -8.6731  -8.6275  -8.5716  -8.5096  -8.4281
    -5.3675  -5.3595  -5.3510  -5.3351  -5.3283  -5.3086  -5.1979  -5.1855
    -5.1834  -5.1773  -5.1701  -5.1643  -5.1583  -5.1432  -5.1364  -5.0864
    -5.0789  -5.0743  -5.0048  -4.9699  -4.9660  -4.9085  -4.9005  -4.8877
    -4.4176  -3.9345  -3.8905  -3.8581  -3.3972  -3.3666  -3.3057  -2.7703
    -0.7734  -0.7150  -0.6948  -0.6282  -0.5502  -0.5116  -0.4751  -0.4406
    -0.3672  -0.2588  -0.2184  -0.1309   0.3996   0.4401   0.5052   0.6262
     0.6684   0.6983   0.7089   0.7447   0.7685   0.8545   0.9082   0.9510
     0.9873   1.0096   1.0283   1.0979   1.1099   1.1346   1.1632   1.1991
     1.2104   1.2344   1.2584   1.2842   1.2954   1.3178   1.3408   1.3652
     1.4027   1.4280   1.4481   1.4867   1.4933   1.5185   1.5422   1.5552
     1.5838   1.6021   1.6399   1.6453   1.6737   1.7351   1.7526   1.7948
     1.8115   1.8251   1.8817   1.9483   1.9827   2.0640   2.1236   2.1528
     2.2043   2.2607   2.3009   2.3428   2.6485   2.6958   2.7542   3.1085

          k = 0.1250 0.1250 0.3750 (132608 PWs)   bands (ev):

   -18.6096 -18.5655 -18.4113 -18.4008 -18.3905 -18.3847 -18.3792 -18.3737
   -18.3703 -18.3699 -18.3079 -18.2960 -18.2951 -18.2881 -18.2834 -18.2788
   -18.2364 -18.2296 -18.2220 -18.2210 -18.2193 -18.2180 -18.2169 -18.2150
   -18.2118 -18.2101 -18.2019 -18.2011 -18.1995 -18.1963 -18.1899 -18.1881
   -18.1844 -18.1803 -18.1736 -18.1714 -18.1649 -18.1648 -18.1628 -18.1621
   -18.1562 -18.1499 -18.1463 -18.1450 -18.1395 -18.1312 -18.1278 -18.1101
    -9.4647  -9.3102  -9.2599  -9.2211  -9.1465  -9.1124  -9.0825  -9.0333
    -9.0083  -8.9790  -8.9454  -8.9012  -8.8690  -8.8521  -8.8107  -8.7920
    -8.7767  -8.7558  -8.7049  -8.6635  -8.6354  -8.5716  -8.5044  -8.4360
    -5.3674  -5.3594  -5.3510  -5.3351  -5.3283  -5.3085  -5.1968  -5.1857
    -5.1840  -5.1767  -5.1702  -5.1651  -5.1584  -5.1432  -5.1365  -5.0863
    -5.0790  -5.0742  -5.0046  -4.9699  -4.9661  -4.9086  -4.9003  -4.8878
    -4.2982  -4.0866  -3.7761  -3.7398  -3.5603  -3.5304  -3.1887  -2.9593
    -0.7435  -0.6963  -0.6822  -0.6156  -0.5393  -0.4651  -0.3931  -0.2799
    -0.1079  -0.0113   0.0590   0.1537   0.3329   0.4460   0.4864   0.5003
     0.5703   0.6164   0.6341   0.6634   0.6977   0.7085   0.7550   0.8376
     0.8659   0.9003   0.9651   1.0053   1.0662   1.1229   1.1488   1.1772
     1.2054   1.2348   1.2468   1.2911   1.3136   1.3256   1.3669   1.3853
     1.4127   1.4445   1.4572   1.4762   1.5055   1.5366   1.5721   1.5798
     1.6168   1.6404   1.6484   1.6779   1.6902   1.7099   1.7596   1.8014
     1.8204   1.8414   1.8531   1.8933   1.9228   2.0201   2.0646   2.1276
     2.1683   2.1783   2.3017   2.3545   2.4442   2.5182   2.6834   2.9160

          k = 0.1250 0.3750 0.3750 (132616 PWs)   bands (ev):

   -18.6096 -18.5655 -18.4113 -18.4008 -18.3905 -18.3847 -18.3792 -18.3737
   -18.3703 -18.3699 -18.3079 -18.2960 -18.2951 -18.2881 -18.2834 -18.2788
   -18.2364 -18.2296 -18.2220 -18.2210 -18.2193 -18.2180 -18.2169 -18.2150
   -18.2118 -18.2101 -18.2019 -18.2011 -18.1995 -18.1963 -18.1899 -18.1881
   -18.1844 -18.1803 -18.1736 -18.1714 -18.1649 -18.1648 -18.1628 -18.1621
   -18.1562 -18.1499 -18.1463 -18.1450 -18.1395 -18.1312 -18.1278 -18.1101
    -9.4434  -9.3508  -9.2384  -9.2021  -9.1770  -9.1255  -9.0734  -9.0310
    -9.0106  -8.9799  -8.9324  -8.9063  -8.8768  -8.8497  -8.8150  -8.7970
    -8.7737  -8.7254  -8.7019  -8.6641  -8.6330  -8.5865  -8.5050  -8.4374
    -5.3673  -5.3592  -5.3506  -5.3353  -5.3286  -5.3086  -5.1970  -5.1854
    -5.1841  -5.1758  -5.1719  -5.1636  -5.1584  -5.1432  -5.1365  -5.0864
    -5.0792  -5.0743  -5.0044  -4.9698  -4.9661  -4.9084  -4.9005  -4.8880
    -4.1727  -3.9789  -3.9302  -3.7388  -3.6117  -3.4179  -3.3661  -3.1498
    -0.6974  -0.6355  -0.5454  -0.4688  -0.4172  -0.2233  -0.1945  -0.1448
    -0.0244   0.0748   0.1717   0.1915   0.2094   0.4312   0.4713   0.4939
     0.5188   0.5405   0.6042   0.6184   0.6452   0.6670   0.6991   0.7668
     0.8228   0.8630   0.8871   0.9082   0.9855   1.0431   1.0530   1.1185
     1.1313   1.1544   1.2035   1.2329   1.2839   1.3204   1.3467   1.3684
     1.3816   1.4160   1.4546   1.4855   1.5037   1.5659   1.5977   1.6303
     1.6384   1.6607   1.6904   1.7006   1.7137   1.7492   1.7835   1.8273
     1.8392   1.8530   1.8837   1.9084   1.9385   1.9733   2.0379   2.0604
     2.0837   2.1354   2.1883   2.2343   2.3523   2.4400   2.4804   2.6649

          k = 0.3750 0.3750 0.3750 (132612 PWs)   bands (ev):

   -18.6096 -18.5655 -18.4113 -18.4008 -18.3905 -18.3847 -18.3792 -18.3737
   -18.3703 -18.3699 -18.3079 -18.2960 -18.2951 -18.2881 -18.2834 -18.2788
   -18.2364 -18.2296 -18.2220 -18.2210 -18.2193 -18.2180 -18.2169 -18.2150
   -18.2118 -18.2101 -18.2019 -18.2011 -18.1995 -18.1963 -18.1899 -18.1881
   -18.1844 -18.1803 -18.1736 -18.1714 -18.1649 -18.1648 -18.1628 -18.1621
   -18.1562 -18.1499 -18.1463 -18.1450 -18.1395 -18.1312 -18.1278 -18.1101
    -9.4360  -9.3372  -9.2508  -9.2101  -9.1677  -9.1311  -9.1062  -9.0360
    -9.0135  -8.9830  -8.9314  -8.9040  -8.8615  -8.8335  -8.8091  -8.7849
    -8.7636  -8.7232  -8.7104  -8.6687  -8.6383  -8.5907  -8.5070  -8.4380
    -5.3673  -5.3593  -5.3509  -5.3353  -5.3284  -5.3085  -5.1970  -5.1852
    -5.1844  -5.1760  -5.1718  -5.1637  -5.1584  -5.1431  -5.1366  -5.0862
    -5.0790  -5.0743  -5.0047  -4.9697  -4.9659  -4.9086  -4.9007  -4.8876
    -4.0519  -3.8721  -3.8228  -3.7676  -3.6278  -3.5857  -3.5324  -3.3399
    -0.4656  -0.3639  -0.3147  -0.2703  -0.2189  -0.1850  -0.1417  -0.0641
     0.0249   0.0926   0.1173   0.1698   0.2641   0.3494   0.3645   0.4510
     0.4808   0.5299   0.5443   0.5563   0.6025   0.6251   0.6746   0.7043
     0.8147   0.8761   0.8971   0.9177   0.9536   1.0089   1.0240   1.0535
     1.0820   1.1124   1.1403   1.1715   1.1875   1.2251   1.2765   1.3033
     1.3583   1.3779   1.4402   1.4826   1.5153   1.5554   1.6109   1.6393
     1.6656   1.7009   1.7266   1.7379   1.7527   1.7722   1.8088   1.8232
     1.8403   1.8682   1.8766   1.9043   1.9294   1.9458   1.9686   2.0041
     2.0678   2.0743   2.0965   2.1697   2.2200   2.2597   2.3101   2.4165

          k =-0.1250-0.1250 0.1250 (132670 PWs)   bands (ev):

   -18.6096 -18.5655 -18.4113 -18.4008 -18.3905 -18.3847 -18.3792 -18.3737
   -18.3703 -18.3699 -18.3079 -18.2960 -18.2951 -18.2881 -18.2834 -18.2788
   -18.2364 -18.2296 -18.2220 -18.2210 -18.2193 -18.2180 -18.2169 -18.2150
   -18.2118 -18.2101 -18.2019 -18.2011 -18.1995 -18.1963 -18.1899 -18.1881
   -18.1844 -18.1803 -18.1736 -18.1714 -18.1649 -18.1648 -18.1628 -18.1621
   -18.1562 -18.1499 -18.1463 -18.1450 -18.1395 -18.1312 -18.1278 -18.1101
    -9.4720  -9.3212  -9.2373  -9.2236  -9.1334  -9.1075  -9.0780  -9.0424
    -9.0106  -8.9786  -8.9492  -8.9105  -8.8733  -8.8564  -8.8004  -8.7870
    -8.7763  -8.7552  -8.7137  -8.6733  -8.6271  -8.5715  -8.5098  -8.4280
    -5.3675  -5.3595  -5.3510  -5.3351  -5.3283  -5.3086  -5.1975  -5.1858
    -5.1834  -5.1776  -5.1709  -5.1634  -5.1581  -5.1432  -5.1365  -5.0865
    -5.0789  -5.0743  -5.0049  -4.9698  -4.9660  -4.9085  -4.9005  -4.8877
    -4.4178  -3.9362  -3.8841  -3.8626  -3.3967  -3.3754  -3.2941  -2.7754
    -0.7593  -0.7086  -0.6848  -0.6330  -0.5457  -0.5256  -0.4611  -0.4315
    -0.3683  -0.2901  -0.2400  -0.1349   0.4051   0.4405   0.5067   0.6344
     0.6586   0.6830   0.7069   0.7433   0.7884   0.8769   0.9063   0.9506
     0.9803   1.0143   1.0747   1.0793   1.1194   1.1435   1.1638   1.1716
     1.2060   1.2300   1.2557   1.2757   1.2997   1.3280   1.3422   1.3636
     1.3919   1.4130   1.4411   1.4595   1.5066   1.5278   1.5401   1.5659
     1.5748   1.6027   1.6339   1.6586   1.6860   1.7141   1.7739   1.7889
     1.8127   1.8281   1.8900   1.9448   1.9942   2.0622   2.1324   2.1600
     2.2062   2.2610   2.2953   2.3381   2.6374   2.6990   2.7535   3.0650

          k =-0.1250 0.1250-0.1250 (132670 PWs)   bands (ev):

   -18.6096 -18.5655 -18.4113 -18.4008 -18.3905 -18.3847 -18.3792 -18.3737
   -18.3703 -18.3699 -18.3079 -18.2960 -18.2951 -18.2881 -18.2834 -18.2788
   -18.2364 -18.2296 -18.2220 -18.2210 -18.2193 -18.2180 -18.2169 -18.2150
   -18.2118 -18.2101 -18.2019 -18.2011 -18.1995 -18.1963 -18.1899 -18.1881
   -18.1844 -18.1803 -18.1736 -18.1714 -18.1649 -18.1648 -18.1628 -18.1621
   -18.1562 -18.1499 -18.1463 -18.1450 -18.1395 -18.1312 -18.1278 -18.1101
    -9.4710  -9.3284  -9.2294  -9.2190  -9.1338  -9.1128  -9.0805  -9.0460
    -9.0018  -8.9826  -8.9471  -8.9136  -8.8746  -8.8524  -8.8066  -8.7863
    -8.7708  -8.7531  -8.7167  -8.6727  -8.6275  -8.5718  -8.5097  -8.4280
    -5.3674  -5.3594  -5.3512  -5.3350  -5.3284  -5.3086  -5.1975  -5.1857
    -5.1835  -5.1776  -5.1709  -5.1634  -5.1583  -5.1432  -5.1365  -5.0863
    -5.0790  -5.0743  -5.0049  -4.9698  -4.9659  -4.9084  -4.9005  -4.8877
    -4.4170  -3.9394  -3.8867  -3.8577  -3.4037  -3.3733  -3.2896  -2.7733
    -0.7759  -0.7223  -0.6916  -0.6457  -0.5421  -0.4985  -0.4625  -0.4176
    -0.3743  -0.2668  -0.2374  -0.1339   0.4055   0.4446   0.5040   0.6392
     0.6674   0.6768   0.7007   0.7470   0.7887   0.8593   0.8904   0.9337
     1.0051   1.0338   1.0550   1.0896   1.0967   1.1342   1.1595   1.1762
     1.1824   1.2459   1.2628   1.2733   1.2940   1.3235   1.3522   1.3728
     1.3927   1.4178   1.4434   1.4775   1.5088   1.5339   1.5376   1.5633
     1.5722   1.6001   1.6304   1.6591   1.6965   1.7215   1.7615   1.7886
     1.8024   1.8200   1.8990   1.9383   1.9877   2.0746   2.1188   2.1646
     2.2033   2.2561   2.2977   2.3239   2.6351   2.6991   2.7852   3.0997

          k = 0.1250-0.1250-0.1250 (132670 PWs)   bands (ev):

   -18.6096 -18.5655 -18.4113 -18.4008 -18.3905 -18.3847 -18.3792 -18.3737
   -18.3703 -18.3699 -18.3079 -18.2960 -18.2951 -18.2881 -18.2834 -18.2788
   -18.2364 -18.2296 -18.2220 -18.2210 -18.2193 -18.2180 -18.2169 -18.2150
   -18.2118 -18.2101 -18.2019 -18.2011 -18.1995 -18.1963 -18.1899 -18.1881
   -18.1844 -18.1803 -18.1736 -18.1714 -18.1649 -18.1648 -18.1628 -18.1621
   -18.1562 -18.1499 -18.1463 -18.1450 -18.1395 -18.1312 -18.1278 -18.1101
    -9.4710  -9.3275  -9.2343  -9.2164  -9.1294  -9.1158  -9.0798  -9.0484
    -8.9985  -8.9849  -8.9422  -8.9186  -8.8675  -8.8579  -8.8038  -8.7928
    -8.7717  -8.7513  -8.7144  -8.6719  -8.6282  -8.5718  -8.5097  -8.4281
    -5.3675  -5.3593  -5.3512  -5.3350  -5.3284  -5.3086  -5.1979  -5.1856
    -5.1834  -5.1772  -5.1702  -5.1643  -5.1582  -5.1433  -5.1364  -5.0865
    -5.0790  -5.0742  -5.0048  -4.9699  -4.9659  -4.9085  -4.9004  -4.8876
    -4.4175  -3.9292  -3.8923  -3.8644  -3.3906  -3.3682  -3.3073  -2.7708
    -0.7798  -0.7213  -0.6978  -0.6407  -0.5374  -0.5085  -0.4724  -0.4057
    -0.3561  -0.2887  -0.2112  -0.1468   0.4001   0.4438   0.5042   0.6293
     0.6598   0.6882   0.6997   0.7434   0.8054   0.8619   0.9110   0.9454
     0.9744   1.0008   1.0456   1.0782   1.1168   1.1417   1.1772   1.1906
     1.2037   1.2230   1.2610   1.2813   1.3019   1.3175   1.3234   1.3802
     1.3950   1.4158   1.4536   1.4823   1.5097   1.5280   1.5386   1.5484
     1.5820   1.5943   1.6294   1.6562   1.6912   1.7286   1.7551   1.7993
     1.8072   1.8282   1.8726   1.9495   2.0007   2.0618   2.1239   2.1712
     2.2169   2.2263   2.2816   2.3407   2.6596   2.7143   2.7503   3.0947

          k =-0.1250-0.1250 0.3750 (132608 PWs)   bands (ev):

   -18.6096 -18.5655 -18.4113 -18.4008 -18.3905 -18.3847 -18.3792 -18.3737
   -18.3703 -18.3699 -18.3079 -18.2960 -18.2951 -18.2881 -18.2834 -18.2788
   -18.2364 -18.2296 -18.2220 -18.2210 -18.2193 -18.2180 -18.2169 -18.2150
   -18.2118 -18.2101 -18.2019 -18.2011 -18.1995 -18.1963 -18.1899 -18.1881
   -18.1844 -18.1803 -18.1736 -18.1714 -18.1649 -18.1648 -18.1628 -18.1621
   -18.1562 -18.1499 -18.1463 -18.1450 -18.1395 -18.1312 -18.1278 -18.1101
    -9.4648  -9.3104  -9.2569  -9.2237  -9.1484  -9.1103  -9.0817  -9.0339
    -9.0128  -8.9731  -8.9500  -8.8947  -8.8639  -8.8586  -8.8077  -8.7933
    -8.7840  -8.7543  -8.7024  -8.6645  -8.6347  -8.5714  -8.5046  -8.4358
    -5.3674  -5.3594  -5.3510  -5.3351  -5.3283  -5.3085  -5.1962  -5.1861
    -5.1840  -5.1770  -5.1711  -5.1640  -5.1583  -5.1432  -5.1365  -5.0864
    -5.0790  -5.0742  -5.0047  -4.9698  -4.9661  -4.9086  -4.9004  -4.8879
    -4.2986  -4.0862  -3.7741  -3.7409  -3.5582  -3.5359  -3.1774  -2.9697
    -0.7365  -0.6960  -0.6732  -0.6167  -0.5382  -0.4671  -0.3457  -0.3003
    -0.1322  -0.0602   0.0467   0.1376   0.3652   0.4496   0.4995   0.5177
     0.5753   0.6059   0.6410   0.6481   0.6929   0.7134   0.7459   0.8546
     0.8813   0.9075   0.9708   1.0214   1.0639   1.1035   1.1441   1.1678
     1.2060   1.2279   1.2599   1.2740   1.3231   1.3316   1.3556   1.3940
     1.4125   1.4338   1.4552   1.4689   1.5094   1.5380   1.5587   1.5916
     1.6122   1.6263   1.6571   1.6723   1.6913   1.7206   1.7778   1.7823
     1.8139   1.8353   1.8680   1.9128   1.9410   2.0106   2.0680   2.1323
     2.1524   2.1966   2.3030   2.3256   2.4714   2.4985   2.6882   2.8849

          k =-0.1250 0.1250-0.3750 (132608 PWs)   bands (ev):

   -18.6096 -18.5655 -18.4113 -18.4008 -18.3905 -18.3847 -18.3792 -18.3737
   -18.3703 -18.3699 -18.3079 -18.2960 -18.2951 -18.2881 -18.2834 -18.2788
   -18.2364 -18.2296 -18.2220 -18.2210 -18.2193 -18.2180 -18.2169 -18.2150
   -18.2118 -18.2101 -18.2019 -18.2011 -18.1995 -18.1963 -18.1899 -18.1881
   -18.1844 -18.1803 -18.1736 -18.1714 -18.1649 -18.1648 -18.1628 -18.1621
   -18.1562 -18.1499 -18.1463 -18.1450 -18.1395 -18.1312 -18.1278 -18.1101
    -9.4638  -9.3190  -9.2544  -9.2118  -9.1482  -9.1181  -9.0822  -9.0349
    -9.0115  -8.9734  -8.9486  -8.8961  -8.8699  -8.8511  -8.8150  -8.7907
    -8.7772  -8.7546  -8.7043  -8.6645  -8.6349  -8.5717  -8.5046  -8.4358
    -5.3673  -5.3593  -5.3511  -5.3351  -5.3283  -5.3085  -5.1962  -5.1860
    -5.1840  -5.1770  -5.1711  -5.1640  -5.1584  -5.1432  -5.1366  -5.0863
    -5.0791  -5.0742  -5.0047  -4.9698  -4.9660  -4.9086  -4.9004  -4.8878
    -4.2972  -4.0873  -3.7784  -3.7381  -3.5649  -3.5296  -3.1773  -2.9670
    -0.7613  -0.7051  -0.6578  -0.6360  -0.5157  -0.4580  -0.3730  -0.2823
    -0.1175  -0.0398   0.0470   0.1474   0.3641   0.4503   0.5018   0.5122
     0.5663   0.6129   0.6248   0.6669   0.6795   0.7013   0.7471   0.8511
     0.8726   0.9266   0.9623   1.0056   1.0546   1.1057   1.1392   1.1665
     1.2002   1.2324   1.2521   1.2793   1.3208   1.3484   1.3601   1.3882
     1.4198   1.4324   1.4559   1.4878   1.5111   1.5393   1.5578   1.5799
     1.6085   1.6293   1.6619   1.6855   1.7073   1.7164   1.7590   1.7907
     1.8128   1.8322   1.8523   1.8961   1.9239   2.0284   2.0712   2.1199
     2.1700   2.1957   2.2827   2.3430   2.4647   2.4846   2.7206   2.9101

          k = 0.1250-0.1250-0.3750 (132608 PWs)   bands (ev):

   -18.6096 -18.5655 -18.4113 -18.4008 -18.3905 -18.3847 -18.3792 -18.3737
   -18.3703 -18.3699 -18.3079 -18.2960 -18.2951 -18.2881 -18.2834 -18.2788
   -18.2364 -18.2296 -18.2220 -18.2210 -18.2193 -18.2180 -18.2169 -18.2150
   -18.2118 -18.2101 -18.2019 -18.2011 -18.1995 -18.1963 -18.1899 -18.1881
   -18.1844 -18.1803 -18.1736 -18.1714 -18.1649 -18.1648 -18.1628 -18.1621
   -18.1562 -18.1499 -18.1463 -18.1450 -18.1395 -18.1312 -18.1278 -18.1101
    -9.4638  -9.3173  -9.2583  -9.2107  -9.1461  -9.1192  -9.0813  -9.0362
    -9.0127  -8.9722  -8.9465  -8.8974  -8.8628  -8.8585  -8.8102  -8.7978
    -8.7784  -8.7531  -8.7024  -8.6630  -8.6361  -8.5717  -8.5045  -8.4359
    -5.3674  -5.3593  -5.3511  -5.3351  -5.3283  -5.3085  -5.1968  -5.1858
    -5.1840  -5.1766  -5.1702  -5.1651  -5.1583  -5.1432  -5.1365  -5.0864
    -5.0791  -5.0741  -5.0046  -4.9699  -4.9660  -4.9086  -4.9003  -4.8878
    -4.2985  -4.0838  -3.7799  -3.7470  -3.5484  -3.5331  -3.1878  -2.9609
    -0.7621  -0.7072  -0.6678  -0.6272  -0.5195  -0.4577  -0.3519  -0.2991
    -0.1199  -0.0296   0.0594   0.1428   0.3385   0.4440   0.4935   0.5112
     0.5737   0.6144   0.6368   0.6557   0.6840   0.7254   0.7643   0.8482
     0.8823   0.8901   0.9500   0.9992   1.0732   1.1057   1.1606   1.1770
     1.1981   1.2213   1.2321   1.2729   1.3101   1.3425   1.3798   1.3990
     1.4224   1.4322   1.4755   1.4820   1.5044   1.5352   1.5497   1.5891
     1.6145   1.6337   1.6499   1.6791   1.6948   1.7159   1.7509   1.7895
     1.8122   1.8229   1.8628   1.9175   1.9400   2.0182   2.0633   2.1256
     2.1797   2.1857   2.2748   2.3375   2.4758   2.4913   2.7110   2.9069

          k = 0.3750-0.1250 0.1250 (132608 PWs)   bands (ev):

   -18.6096 -18.5655 -18.4113 -18.4008 -18.3905 -18.3847 -18.3792 -18.3737
   -18.3703 -18.3699 -18.3079 -18.2960 -18.2951 -18.2881 -18.2834 -18.2788
   -18.2364 -18.2296 -18.2220 -18.2210 -18.2193 -18.2180 -18.2169 -18.2150
   -18.2118 -18.2101 -18.2019 -18.2011 -18.1995 -18.1963 -18.1899 -18.1881
   -18.1844 -18.1803 -18.1736 -18.1714 -18.1649 -18.1648 -18.1628 -18.1621
   -18.1562 -18.1499 -18.1463 -18.1450 -18.1395 -18.1312 -18.1278 -18.1101
    -9.4591  -9.3341  -9.2319  -9.2069  -9.1411  -9.1322  -9.0973  -9.0506
    -8.9954  -8.9878  -8.9489  -8.9167  -8.8634  -8.8356  -8.8012  -8.7851
    -8.7572  -8.7385  -8.7182  -8.6767  -8.6386  -8.5780  -8.5130  -8.4286
    -5.3673  -5.3591  -5.3509  -5.3352  -5.3288  -5.3087  -5.1974  -5.1852
    -5.1836  -5.1774  -5.1708  -5.1634  -5.1584  -5.1433  -5.1366  -5.0864
    -5.0790  -5.0745  -5.0054  -4.9698  -4.9660  -4.9086  -4.9008  -4.8874
    -4.2927  -4.0399  -3.8029  -3.7636  -3.5692  -3.4798  -3.2528  -2.9976
    -0.7580  -0.6086  -0.5518  -0.5193  -0.5039  -0.4661  -0.3775  -0.3003
    -0.1533  -0.0490   0.0418   0.1019   0.3984   0.4215   0.4728   0.5249
     0.5625   0.5822   0.6517   0.6595   0.6821   0.7197   0.7764   0.8219
     0.8848   0.9228   0.9634   1.0056   1.0437   1.0642   1.1192   1.1509
     1.1862   1.2114   1.2330   1.2521   1.2717   1.2947   1.3593   1.3869
     1.4006   1.4195   1.4620   1.5043   1.5208   1.5315   1.5573   1.5798
     1.6018   1.6315   1.6524   1.6827   1.7093   1.7396   1.7622   1.8029
     1.8200   1.8531   1.8619   1.9175   1.9264   1.9853   2.0353   2.1032
     2.1220   2.2307   2.2808   2.3021   2.4316   2.5656   2.7091   2.8539

          k =-0.3750-0.1250-0.1250 (132608 PWs)   bands (ev):

   -18.6096 -18.5655 -18.4113 -18.4008 -18.3905 -18.3847 -18.3792 -18.3737
   -18.3703 -18.3699 -18.3079 -18.2960 -18.2951 -18.2881 -18.2834 -18.2788
   -18.2364 -18.2296 -18.2220 -18.2210 -18.2193 -18.2180 -18.2169 -18.2150
   -18.2118 -18.2101 -18.2019 -18.2011 -18.1995 -18.1963 -18.1899 -18.1881
   -18.1844 -18.1803 -18.1736 -18.1714 -18.1649 -18.1648 -18.1628 -18.1621
   -18.1562 -18.1499 -18.1463 -18.1450 -18.1395 -18.1312 -18.1278 -18.1101
    -9.4603  -9.3261  -9.2454  -9.2072  -9.1368  -9.1266  -9.0988  -9.0509
    -8.9983  -8.9851  -8.9427  -8.9264  -8.8585  -8.8398  -8.7993  -8.7838
    -8.7561  -8.7405  -8.7190  -8.6766  -8.6387  -8.5777  -8.5128  -8.4287
    -5.3674  -5.3592  -5.3507  -5.3352  -5.3288  -5.3087  -5.1978  -5.1850
    -5.1836  -5.1772  -5.1701  -5.1642  -5.1584  -5.1433  -5.1366  -5.0864
    -5.0790  -5.0745  -5.0052  -4.9699  -4.9660  -4.9086  -4.9008  -4.8874
    -4.2939  -4.0385  -3.7983  -3.7680  -3.5523  -3.5008  -3.2512  -2.9954
    -0.7654  -0.6067  -0.5424  -0.5201  -0.5049  -0.4483  -0.3777  -0.3046
    -0.1750  -0.0475   0.0272   0.1116   0.3959   0.4156   0.4726   0.5316
     0.5551   0.5841   0.6537   0.6630   0.6935   0.7431   0.7692   0.8105
     0.8845   0.9306   0.9682   1.0022   1.0499   1.0798   1.1101   1.1376
     1.1747   1.1909   1.2414   1.2569   1.2819   1.3119   1.3387   1.3622
     1.4254   1.4349   1.4630   1.4840   1.4999   1.5405   1.5593   1.5956
     1.6176   1.6324   1.6604   1.6744   1.6883   1.7364   1.7699   1.7922
     1.8239   1.8518   1.8778   1.9071   1.9266   1.9782   2.0353   2.1020
     2.1240   2.2303   2.2634   2.3320   2.4325   2.5425   2.7241   2.8571

          k = 0.3750 0.1250-0.1250 (132608 PWs)   bands (ev):

   -18.6096 -18.5655 -18.4113 -18.4008 -18.3905 -18.3847 -18.3792 -18.3737
   -18.3703 -18.3699 -18.3079 -18.2960 -18.2951 -18.2881 -18.2834 -18.2788
   -18.2364 -18.2296 -18.2220 -18.2210 -18.2193 -18.2180 -18.2169 -18.2150
   -18.2118 -18.2101 -18.2019 -18.2011 -18.1995 -18.1963 -18.1899 -18.1881
   -18.1844 -18.1803 -18.1736 -18.1714 -18.1649 -18.1648 -18.1628 -18.1621
   -18.1562 -18.1499 -18.1463 -18.1450 -18.1395 -18.1312 -18.1278 -18.1101
    -9.4604  -9.3255  -9.2453  -9.2077  -9.1403  -9.1253  -9.0963  -9.0481
    -9.0065  -8.9810  -8.9491  -8.9148  -8.8633  -8.8376  -8.7953  -8.7867
    -8.7633  -8.7409  -8.7138  -8.6771  -8.6382  -8.5777  -8.5131  -8.4285
    -5.3674  -5.3592  -5.3507  -5.3352  -5.3288  -5.3087  -5.1974  -5.1853
    -5.1836  -5.1774  -5.1708  -5.1634  -5.1582  -5.1433  -5.1366  -5.0865
    -5.0789  -5.0745  -5.0053  -4.9699  -4.9660  -4.9086  -4.9008  -4.8875
    -4.2948  -4.0350  -3.8080  -3.7628  -3.5632  -3.4823  -3.2530  -3.0006
    -0.7536  -0.5900  -0.5439  -0.5292  -0.4899  -0.4499  -0.3829  -0.3056
    -0.2040  -0.0464   0.0284   0.0767   0.4013   0.4134   0.4843   0.5350
     0.5611   0.5896   0.6436   0.6726   0.7039   0.7350   0.7801   0.8281
     0.8667   0.9321   0.9649   1.0093   1.0288   1.0797   1.1199   1.1622
     1.1783   1.2181   1.2277   1.2613   1.2703   1.3005   1.3418   1.3670
     1.3907   1.4236   1.4466   1.5084   1.5133   1.5253   1.5660   1.5943
     1.6068   1.6268   1.6499   1.6856   1.6903   1.7527   1.7722   1.7985
     1.8298   1.8507   1.8752   1.9048   1.9228   1.9855   2.0283   2.0981
     2.1554   2.2167   2.2816   2.3221   2.4468   2.5221   2.7213   2.8212

          k =-0.3750 0.1250 0.1250 (132608 PWs)   bands (ev):

   -18.6096 -18.5655 -18.4113 -18.4008 -18.3905 -18.3847 -18.3792 -18.3737
   -18.3703 -18.3699 -18.3079 -18.2960 -18.2951 -18.2881 -18.2834 -18.2788
   -18.2364 -18.2296 -18.2220 -18.2210 -18.2193 -18.2180 -18.2169 -18.2150
   -18.2118 -18.2101 -18.2019 -18.2011 -18.1995 -18.1963 -18.1899 -18.1881
   -18.1844 -18.1803 -18.1736 -18.1714 -18.1649 -18.1648 -18.1628 -18.1621
   -18.1562 -18.1499 -18.1463 -18.1450 -18.1395 -18.1312 -18.1278 -18.1101
    -9.4591  -9.3335  -9.2332  -9.2078  -9.1421  -9.1258  -9.1001  -9.0542
    -8.9984  -8.9813  -8.9436  -8.9246  -8.8551  -8.8396  -8.8025  -8.7871
    -8.7624  -8.7350  -8.7162  -8.6751  -8.6397  -8.5780  -8.5129  -8.4287
    -5.3673  -5.3590  -5.3509  -5.3351  -5.3288  -5.3087  -5.1978  -5.1852
    -5.1835  -5.1770  -5.1702  -5.1642  -5.1583  -5.1433  -5.1366  -5.0865
    -5.0790  -5.0744  -5.0052  -4.9699  -4.9660  -4.9086  -4.9008  -4.8874
    -4.2935  -4.0382  -3.8004  -3.7700  -3.5558  -3.4929  -3.2507  -2.9968
    -0.7669  -0.6183  -0.5619  -0.5208  -0.4866  -0.4327  -0.3873  -0.2856
    -0.1685  -0.0491   0.0438   0.0728   0.3995   0.4133   0.4791   0.5388
     0.5598   0.5911   0.6465   0.6521   0.6828   0.7345   0.7936   0.8339
     0.8438   0.9347   0.9728   1.0104   1.0413   1.0906   1.1117   1.1324
     1.1637   1.1968   1.2313   1.2475   1.2944   1.2954   1.3433   1.3962
     1.4119   1.4394   1.4594   1.4899   1.5085   1.5298   1.5490   1.5789
     1.6038   1.6392   1.6658   1.6733   1.7176   1.7393   1.7603   1.7946
     1.8189   1.8534   1.8857   1.9111   1.9244   1.9796   2.0297   2.0997
     2.1345   2.2178   2.2765   2.3006   2.4483   2.5514   2.7247   2.8495

          k =-0.1250 0.3750 0.1250 (132608 PWs)   bands (ev):

   -18.6096 -18.5655 -18.4113 -18.4008 -18.3905 -18.3847 -18.3792 -18.3737
   -18.3703 -18.3699 -18.3079 -18.2960 -18.2951 -18.2881 -18.2834 -18.2788
   -18.2364 -18.2296 -18.2220 -18.2210 -18.2193 -18.2180 -18.2169 -18.2150
   -18.2118 -18.2101 -18.2019 -18.2011 -18.1995 -18.1963 -18.1899 -18.1881
   -18.1844 -18.1803 -18.1736 -18.1714 -18.1649 -18.1648 -18.1628 -18.1621
   -18.1562 -18.1499 -18.1463 -18.1450 -18.1395 -18.1312 -18.1278 -18.1101
    -9.4469  -9.3672  -9.2149  -9.2049  -9.1453  -9.1357  -9.0690  -9.0508
    -9.0088  -8.9811  -8.9344  -8.9140  -8.8760  -8.8477  -8.8119  -8.7935
    -8.7742  -8.7337  -8.7031  -8.6688  -8.6262  -8.5874  -8.5104  -8.4303
    -5.3673  -5.3590  -5.3508  -5.3351  -5.3287  -5.3087  -5.1972  -5.1853
    -5.1839  -5.1762  -5.1702  -5.1652  -5.1582  -5.1433  -5.1365  -5.0865
    -5.0790  -5.0742  -5.0047  -4.9700  -4.9660  -4.9084  -4.9007  -4.8878
    -4.2868  -4.0735  -3.7943  -3.7466  -3.5606  -3.5100  -3.2240  -2.9801
    -0.7108  -0.6670  -0.6338  -0.5893  -0.5273  -0.4452  -0.3074  -0.2448
    -0.1878  -0.0114   0.0388   0.0749   0.3301   0.4685   0.5029   0.5214
     0.5549   0.5825   0.6075   0.6319   0.6725   0.7031   0.7735   0.7931
     0.8741   0.9320   0.9866   1.0150   1.0708   1.1011   1.1577   1.1811
     1.2070   1.2317   1.2597   1.2691   1.2976   1.3143   1.3497   1.3674
     1.3996   1.4040   1.4420   1.4714   1.5066   1.5243   1.5498   1.5837
     1.5989   1.6344   1.6505   1.6932   1.7031   1.7674   1.7926   1.8054
     1.8107   1.8427   1.8864   1.9088   1.9805   1.9992   2.0633   2.0895
     2.1282   2.1877   2.2496   2.3424   2.4220   2.4955   2.7365   2.8689

          k =-0.1250-0.3750-0.1250 (132608 PWs)   bands (ev):

   -18.6096 -18.5655 -18.4113 -18.4008 -18.3905 -18.3847 -18.3792 -18.3737
   -18.3703 -18.3699 -18.3079 -18.2960 -18.2951 -18.2881 -18.2834 -18.2788
   -18.2364 -18.2296 -18.2220 -18.2210 -18.2193 -18.2180 -18.2169 -18.2150
   -18.2118 -18.2101 -18.2019 -18.2011 -18.1995 -18.1963 -18.1899 -18.1881
   -18.1844 -18.1803 -18.1736 -18.1714 -18.1649 -18.1648 -18.1628 -18.1621
   -18.1562 -18.1499 -18.1463 -18.1450 -18.1395 -18.1312 -18.1278 -18.1101
    -9.4488  -9.3616  -9.2293  -9.1981  -9.1502  -9.1262  -9.0708  -9.0388
    -9.0219  -8.9767  -8.9392  -8.9085  -8.8839  -8.8462  -8.8098  -8.7920
    -8.7695  -8.7359  -8.7053  -8.6701  -8.6254  -8.5870  -8.5104  -8.4303
    -5.3674  -5.3592  -5.3506  -5.3352  -5.3287  -5.3086  -5.1972  -5.1852
    -5.1840  -5.1763  -5.1702  -5.1651  -5.1582  -5.1433  -5.1365  -5.0864
    -5.0790  -5.0743  -5.0048  -4.9700  -4.9661  -4.9084  -4.9007  -4.8878
    -4.2879  -4.0709  -3.8043  -3.7309  -3.5739  -3.5046  -3.2243  -2.9794
    -0.7182  -0.6716  -0.6202  -0.5701  -0.5281  -0.4457  -0.3156  -0.2588
    -0.1961  -0.0081   0.0355   0.0753   0.3292   0.4574   0.4921   0.5404
     0.5676   0.5761   0.6066   0.6443   0.6787   0.7255   0.7465   0.7956
     0.8758   0.9511   0.9781   1.0445   1.0588   1.0809   1.1410   1.1827
     1.1947   1.2255   1.2574   1.2738   1.2839   1.3257   1.3410   1.3708
     1.4103   1.4203   1.4554   1.4776   1.4990   1.5165   1.5321   1.5939
     1.6064   1.6364   1.6491   1.6835   1.7022   1.7586   1.7894   1.8185
     1.8252   1.8372   1.8958   1.9002   1.9496   2.0091   2.0697   2.0961
     2.1231   2.1864   2.2535   2.3625   2.4109   2.4724   2.7351   2.8928

          k = 0.1250 0.3750-0.1250 (132608 PWs)   bands (ev):

   -18.6096 -18.5655 -18.4113 -18.4008 -18.3905 -18.3847 -18.3792 -18.3737
   -18.3703 -18.3699 -18.3079 -18.2960 -18.2951 -18.2881 -18.2834 -18.2788
   -18.2364 -18.2296 -18.2220 -18.2210 -18.2193 -18.2180 -18.2169 -18.2150
   -18.2118 -18.2101 -18.2019 -18.2011 -18.1995 -18.1963 -18.1899 -18.1881
   -18.1844 -18.1803 -18.1736 -18.1714 -18.1649 -18.1648 -18.1628 -18.1621
   -18.1562 -18.1499 -18.1463 -18.1450 -18.1395 -18.1312 -18.1278 -18.1101
    -9.4490  -9.3617  -9.2236  -9.2023  -9.1563  -9.1206  -9.0734  -9.0376
    -9.0230  -8.9724  -8.9470  -8.9006  -8.8814  -8.8496  -8.8109  -8.7872
    -8.7777  -8.7363  -8.7026  -8.6704  -8.6249  -8.5871  -8.5105  -8.4302
    -5.3674  -5.3592  -5.3506  -5.3352  -5.3287  -5.3086  -5.1967  -5.1856
    -5.1840  -5.1767  -5.1712  -5.1640  -5.1581  -5.1433  -5.1365  -5.0865
    -5.0789  -5.0743  -5.0048  -4.9699  -4.9661  -4.9084  -4.9007  -4.8879
    -4.2877  -4.0730  -3.7982  -3.7320  -3.5768  -3.5076  -3.2134  -2.9888
    -0.7027  -0.6555  -0.6168  -0.5779  -0.5401  -0.4480  -0.3009  -0.2638
    -0.1821  -0.0646   0.0142   0.0721   0.3645   0.4556   0.4918   0.5389
     0.5702   0.5746   0.6157   0.6363   0.6790   0.7216   0.7615   0.7763
     0.8978   0.9477   1.0051   1.0184   1.0702   1.0986   1.1419   1.1650
     1.1963   1.2465   1.2525   1.2696   1.3030   1.3252   1.3423   1.3651
     1.3880   1.4002   1.4240   1.4553   1.5160   1.5335   1.5543   1.5863
     1.6055   1.6257   1.6572   1.6826   1.7278   1.7468   1.7987   1.8164
     1.8223   1.8369   1.8881   1.9003   1.9555   2.0154   2.0639   2.1033
     2.1346   2.1838   2.2693   2.3483   2.3990   2.4825   2.7355   2.8510

          k = 0.1250-0.3750 0.1250 (132608 PWs)   bands (ev):

   -18.6096 -18.5655 -18.4113 -18.4008 -18.3905 -18.3847 -18.3792 -18.3737
   -18.3703 -18.3699 -18.3079 -18.2960 -18.2951 -18.2881 -18.2834 -18.2788
   -18.2364 -18.2296 -18.2220 -18.2210 -18.2193 -18.2180 -18.2169 -18.2150
   -18.2118 -18.2101 -18.2019 -18.2011 -18.1995 -18.1963 -18.1899 -18.1881
   -18.1844 -18.1803 -18.1736 -18.1714 -18.1649 -18.1648 -18.1628 -18.1621
   -18.1562 -18.1499 -18.1463 -18.1450 -18.1395 -18.1312 -18.1278 -18.1101
    -9.4469  -9.3674  -9.2141  -9.2051  -9.1450  -9.1365  -9.0701  -9.0444
    -9.0191  -8.9703  -8.9480  -8.9028  -8.8835  -8.8438  -8.8125  -8.7924
    -8.7723  -8.7332  -8.7059  -8.6695  -8.6254  -8.5873  -8.5105  -8.4302
    -5.3673  -5.3591  -5.3508  -5.3352  -5.3287  -5.3087  -5.1967  -5.1855
    -5.1840  -5.1766  -5.1712  -5.1641  -5.1582  -5.1433  -5.1365  -5.0863
    -5.0790  -5.0743  -5.0049  -4.9699  -4.9660  -4.9083  -4.9008  -4.8878
    -4.2859  -4.0751  -3.7981  -3.7331  -3.5772  -3.5089  -3.2111  -2.9870
    -0.7200  -0.6752  -0.6120  -0.5775  -0.5442  -0.4382  -0.2817  -0.2618
    -0.1727  -0.0579   0.0239   0.0760   0.3656   0.4632   0.5067   0.5251
     0.5630   0.5733   0.6129   0.6332   0.6664   0.7112   0.7473   0.7906
     0.8911   0.9429   1.0042   1.0340   1.0614   1.0935   1.1454   1.1657
     1.1934   1.2202   1.2450   1.2813   1.3046   1.3179   1.3460   1.3736
     1.3964   1.4113   1.4376   1.4744   1.4894   1.5384   1.5454   1.5789
     1.6114   1.6406   1.6471   1.7029   1.7139   1.7535   1.7908   1.8034
     1.8158   1.8421   1.8783   1.9067   1.9795   2.0112   2.0570   2.1084
     2.1199   2.1696   2.2775   2.3206   2.4040   2.4969   2.7584   2.8764

          k =-0.1250-0.3750 0.3750 (132616 PWs)   bands (ev):

   -18.6096 -18.5655 -18.4113 -18.4008 -18.3905 -18.3847 -18.3792 -18.3737
   -18.3703 -18.3699 -18.3079 -18.2960 -18.2951 -18.2881 -18.2834 -18.2788
   -18.2364 -18.2296 -18.2220 -18.2210 -18.2193 -18.2180 -18.2169 -18.2150
   -18.2118 -18.2101 -18.2019 -18.2011 -18.1995 -18.1963 -18.1899 -18.1881
   -18.1844 -18.1803 -18.1736 -18.1714 -18.1649 -18.1648 -18.1628 -18.1621
   -18.1562 -18.1499 -18.1463 -18.1450 -18.1395 -18.1312 -18.1278 -18.1101
    -9.4436  -9.3511  -9.2324  -9.2071  -9.1790  -9.1244  -9.0748  -9.0301
    -9.0127  -8.9726  -8.9420  -8.9007  -8.8669  -8.8585  -8.8157  -8.7916
    -8.7817  -8.7265  -8.6989  -8.6647  -8.6322  -8.5866  -8.5051  -8.4372
    -5.3673  -5.3592  -5.3506  -5.3353  -5.3286  -5.3086  -5.1965  -5.1858
    -5.1841  -5.1762  -5.1725  -5.1628  -5.1582  -5.1432  -5.1365  -5.0865
    -5.0791  -5.0743  -5.0044  -4.9698  -4.9661  -4.9085  -4.9005  -4.8881
    -4.1714  -3.9979  -3.9083  -3.7392  -3.6107  -3.4600  -3.3060  -3.1739
    -0.6921  -0.6303  -0.5495  -0.4458  -0.4001  -0.2587  -0.1801  -0.1271
    -0.0516   0.0456   0.1006   0.1653   0.2634   0.4433   0.4793   0.5128
     0.5259   0.5692   0.5865   0.6070   0.6605   0.6697   0.7034   0.7544
     0.7962   0.8850   0.9056   0.9495   0.9805   1.0144   1.0708   1.0916
     1.1225   1.1699   1.1872   1.2524   1.2940   1.3095   1.3302   1.3672
     1.3857   1.4070   1.4582   1.4845   1.5129   1.5462   1.6048   1.6137
     1.6346   1.6675   1.6808   1.7081   1.7317   1.7544   1.8084   1.8199
     1.8404   1.8463   1.8745   1.9159   1.9372   1.9731   2.0333   2.0622
     2.0821   2.1412   2.1883   2.2521   2.3424   2.4098   2.5284   2.6140

          k =-0.1250 0.3750-0.3750 (132616 PWs)   bands (ev):

   -18.6096 -18.5655 -18.4113 -18.4008 -18.3905 -18.3847 -18.3792 -18.3737
   -18.3703 -18.3699 -18.3079 -18.2960 -18.2951 -18.2881 -18.2834 -18.2788
   -18.2364 -18.2296 -18.2220 -18.2210 -18.2193 -18.2180 -18.2169 -18.2150
   -18.2118 -18.2101 -18.2019 -18.2011 -18.1995 -18.1963 -18.1899 -18.1881
   -18.1844 -18.1803 -18.1736 -18.1714 -18.1649 -18.1648 -18.1628 -18.1621
   -18.1562 -18.1499 -18.1463 -18.1450 -18.1395 -18.1312 -18.1278 -18.1101
    -9.4415  -9.3571  -9.2302  -9.2028  -9.1730  -9.1326  -9.0743  -9.0292
    -9.0178  -8.9697  -8.9429  -8.8979  -8.8776  -8.8488  -8.8181  -8.7948
    -8.7756  -8.7248  -8.7012  -8.6650  -8.6324  -8.5868  -8.5051  -8.4372
    -5.3672  -5.3591  -5.3508  -5.3353  -5.3287  -5.3087  -5.1965  -5.1858
    -5.1841  -5.1761  -5.1725  -5.1628  -5.1584  -5.1432  -5.1365  -5.0864
    -5.0793  -5.0743  -5.0045  -4.9698  -4.9661  -4.9084  -4.9005  -4.8880
    -4.1686  -3.9990  -3.9085  -3.7474  -3.6058  -3.4613  -3.3039  -3.1717
    -0.7054  -0.6380  -0.5629  -0.4580  -0.3772  -0.2459  -0.1752  -0.1185
    -0.0453   0.0620   0.0889   0.1826   0.2715   0.4457   0.4865   0.5052
     0.5302   0.5430   0.5905   0.6160   0.6401   0.6586   0.7147   0.7462
     0.7885   0.8878   0.9087   0.9353   0.9742   1.0187   1.0669   1.0791
     1.1082   1.1656   1.2105   1.2481   1.3067   1.3273   1.3408   1.3514
     1.3841   1.4264   1.4418   1.4814   1.5012   1.5574   1.5835   1.6286
     1.6569   1.6698   1.6911   1.7066   1.7384   1.7532   1.7841   1.8106
     1.8339   1.8439   1.8671   1.9090   1.9372   1.9989   2.0327   2.0523
     2.0865   2.1502   2.1741   2.2410   2.3369   2.4098   2.5346   2.6563

          k = 0.1250-0.3750-0.3750 (132616 PWs)   bands (ev):

   -18.6096 -18.5655 -18.4113 -18.4008 -18.3905 -18.3847 -18.3792 -18.3737
   -18.3703 -18.3699 -18.3079 -18.2960 -18.2951 -18.2881 -18.2834 -18.2788
   -18.2364 -18.2296 -18.2220 -18.2210 -18.2193 -18.2180 -18.2169 -18.2150
   -18.2118 -18.2101 -18.2019 -18.2011 -18.1995 -18.1963 -18.1899 -18.1881
   -18.1844 -18.1803 -18.1736 -18.1714 -18.1649 -18.1648 -18.1628 -18.1621
   -18.1562 -18.1499 -18.1463 -18.1450 -18.1395 -18.1312 -18.1278 -18.1101
    -9.4415  -9.3568  -9.2323  -9.1999  -9.1749  -9.1320  -9.0731  -9.0365
    -9.0094  -8.9757  -8.9328  -8.9071  -8.8665  -8.8570  -8.8171  -8.7948
    -8.7782  -8.7257  -8.6986  -8.6634  -8.6337  -8.5868  -8.5050  -8.4374
    -5.3672  -5.3590  -5.3508  -5.3352  -5.3287  -5.3087  -5.1970  -5.1855
    -5.1841  -5.1757  -5.1719  -5.1636  -5.1583  -5.1432  -5.1365  -5.0865
    -5.0793  -5.0742  -5.0043  -4.9698  -4.9661  -4.9084  -4.9005  -4.8880
    -4.1719  -3.9785  -3.9294  -3.7531  -3.5972  -3.4204  -3.3641  -3.1516
    -0.7007  -0.6358  -0.5698  -0.4440  -0.4144  -0.2131  -0.1922  -0.1504
    -0.0199   0.0662   0.1652   0.1950   0.2172   0.4268   0.4662   0.5009
     0.5278   0.5360   0.5885   0.6139   0.6533   0.6741   0.7029   0.7688
     0.8199   0.8436   0.8798   0.9284   0.9818   1.0231   1.0552   1.1171
     1.1429   1.1525   1.2022   1.2467   1.2975   1.3073   1.3468   1.3649
     1.3875   1.4220   1.4485   1.4820   1.5296   1.5563   1.5891   1.6075
     1.6342   1.6600   1.6879   1.7081   1.7337   1.7583   1.7805   1.8119
     1.8245   1.8499   1.8913   1.9187   1.9347   1.9923   2.0256   2.0604
     2.0808   2.1471   2.1970   2.2342   2.3228   2.4629   2.4839   2.6505

          k = 0.3750 0.1250-0.3750 (132616 PWs)   bands (ev):

   -18.6096 -18.5655 -18.4113 -18.4008 -18.3905 -18.3847 -18.3792 -18.3737
   -18.3703 -18.3699 -18.3079 -18.2960 -18.2951 -18.2881 -18.2834 -18.2788
   -18.2364 -18.2296 -18.2220 -18.2210 -18.2193 -18.2180 -18.2169 -18.2150
   -18.2118 -18.2101 -18.2019 -18.2011 -18.1995 -18.1963 -18.1899 -18.1881
   -18.1844 -18.1803 -18.1736 -18.1714 -18.1649 -18.1648 -18.1628 -18.1621
   -18.1562 -18.1499 -18.1463 -18.1450 -18.1395 -18.1312 -18.1278 -18.1101
    -9.4541  -9.3150  -9.2448  -9.2286  -9.1528  -9.1252  -9.1048  -9.0403
    -9.0072  -8.9767  -8.9501  -8.8915  -8.8602  -8.8418  -8.8028  -8.7870
    -8.7734  -8.7416  -8.7070  -8.6688  -8.6411  -8.5777  -8.5072  -8.4363
    -5.3673  -5.3592  -5.3507  -5.3353  -5.3287  -5.3086  -5.1962  -5.1859
    -5.1842  -5.1770  -5.1711  -5.1640  -5.1582  -5.1432  -5.1367  -5.0862
    -5.0789  -5.0743  -5.0050  -4.9698  -4.9660  -4.9088  -4.9006  -4.8875
    -4.1785  -3.9602  -3.9149  -3.7223  -3.6450  -3.4219  -3.3688  -3.1750
    -0.7236  -0.5693  -0.5352  -0.4775  -0.3015  -0.2209  -0.1750  -0.1499
    -0.0673   0.0208   0.1268   0.1398   0.3433   0.3749   0.4708   0.5017
     0.5299   0.5581   0.5810   0.6133   0.6325   0.6638   0.7004   0.7514
     0.8181   0.8749   0.9132   0.9587   1.0171   1.0311   1.0576   1.1031
     1.1381   1.1556   1.1946   1.2306   1.2531   1.2967   1.3182   1.3434
     1.3916   1.4099   1.4701   1.4797   1.5342   1.5448   1.5871   1.5943
     1.6465   1.6564   1.6870   1.7020   1.7306   1.7648   1.7854   1.8050
     1.8373   1.8462   1.8653   1.8792   1.9379   1.9573   2.0035   2.0575
     2.0816   2.1383   2.1861   2.2697   2.3103   2.4680   2.5392   2.6253

          k =-0.3750-0.1250-0.3750 (132616 PWs)   bands (ev):

   -18.6096 -18.5655 -18.4113 -18.4008 -18.3905 -18.3847 -18.3792 -18.3737
   -18.3703 -18.3699 -18.3079 -18.2960 -18.2951 -18.2881 -18.2834 -18.2788
   -18.2364 -18.2296 -18.2220 -18.2210 -18.2193 -18.2180 -18.2169 -18.2150
   -18.2118 -18.2101 -18.2019 -18.2011 -18.1995 -18.1963 -18.1899 -18.1881
   -18.1844 -18.1803 -18.1736 -18.1714 -18.1649 -18.1648 -18.1628 -18.1621
   -18.1562 -18.1499 -18.1463 -18.1450 -18.1395 -18.1312 -18.1278 -18.1101
    -9.4539  -9.3160  -9.2441  -9.2287  -9.1506  -9.1258  -9.1069  -9.0408
    -9.0037  -8.9797  -8.9463  -8.9001  -8.8544  -8.8414  -8.8103  -8.7843
    -8.7655  -8.7417  -8.7109  -8.6682  -8.6418  -8.5777  -8.5068  -8.4366
    -5.3673  -5.3592  -5.3507  -5.3352  -5.3287  -5.3087  -5.1967  -5.1854
    -5.1843  -5.1767  -5.1703  -5.1649  -5.1584  -5.1432  -5.1366  -5.0861
    -5.0790  -5.0742  -5.0050  -4.9699  -4.9660  -4.9088  -4.9006  -4.8875
    -4.1758  -3.9824  -3.8896  -3.7348  -3.6284  -3.4487  -3.3608  -3.1651
    -0.7298  -0.5764  -0.5368  -0.4775  -0.3316  -0.2637  -0.1884  -0.0501
    -0.0252   0.0246   0.1047   0.2110   0.3139   0.3558   0.4315   0.5061
     0.5265   0.5438   0.5658   0.6145   0.6311   0.6687   0.7182   0.7546
     0.8122   0.8702   0.9222   0.9541   0.9957   1.0269   1.0555   1.1042
     1.1381   1.1731   1.2033   1.2212   1.2537   1.2886   1.3185   1.3639
     1.3835   1.4105   1.4697   1.4839   1.5128   1.5673   1.5761   1.6251
     1.6457   1.6654   1.6873   1.7079   1.7165   1.7576   1.7733   1.8194
     1.8273   1.8366   1.8621   1.8861   1.9272   1.9508   1.9934   2.0713
     2.1045   2.1276   2.1624   2.2550   2.3254   2.4873   2.5291   2.6539

          k = 0.3750-0.1250 0.3750 (132616 PWs)   bands (ev):

   -18.6096 -18.5655 -18.4113 -18.4008 -18.3905 -18.3847 -18.3792 -18.3737
   -18.3703 -18.3699 -18.3079 -18.2960 -18.2951 -18.2881 -18.2834 -18.2788
   -18.2364 -18.2296 -18.2220 -18.2210 -18.2193 -18.2180 -18.2169 -18.2150
   -18.2118 -18.2101 -18.2019 -18.2011 -18.1995 -18.1963 -18.1899 -18.1881
   -18.1844 -18.1803 -18.1736 -18.1714 -18.1649 -18.1648 -18.1628 -18.1621
   -18.1562 -18.1499 -18.1463 -18.1450 -18.1395 -18.1312 -18.1278 -18.1101
    -9.4527  -9.3248  -9.2367  -9.2213  -9.1512  -9.1357  -9.1041  -9.0409
    -9.0052  -8.9771  -8.9503  -8.8928  -8.8609  -8.8400  -8.8074  -8.7859
    -8.7662  -8.7417  -8.7090  -8.6695  -8.6412  -8.5779  -8.5071  -8.4364
    -5.3672  -5.3591  -5.3509  -5.3352  -5.3288  -5.3087  -5.1962  -5.1857
    -5.1843  -5.1770  -5.1711  -5.1640  -5.1583  -5.1432  -5.1367  -5.0861
    -5.0791  -5.0743  -5.0051  -4.9698  -4.9659  -4.9088  -4.9006  -4.8875
    -4.1742  -3.9807  -3.8904  -3.7508  -3.6172  -3.4457  -3.3549  -3.1717
    -0.7298  -0.5806  -0.5368  -0.4810  -0.3299  -0.2483  -0.1854  -0.0583
    -0.0360   0.0166   0.1137   0.2078   0.3281   0.3690   0.4515   0.5028
     0.5184   0.5468   0.5705   0.5991   0.6236   0.6659   0.6870   0.7699
     0.8076   0.8836   0.9239   0.9482   0.9872   1.0241   1.0549   1.0966
     1.1494   1.1672   1.1989   1.2216   1.2497   1.2994   1.3189   1.3669
     1.3985   1.4168   1.4654   1.4829   1.5211   1.5490   1.5963   1.6059
     1.6430   1.6521   1.6947   1.7153   1.7347   1.7547   1.7769   1.7994
     1.8299   1.8340   1.8611   1.8876   1.9235   1.9500   2.0095   2.0679
     2.0952   2.1260   2.1841   2.2625   2.3053   2.4677   2.5432   2.6591

          k =-0.3750 0.1250 0.3750 (132616 PWs)   bands (ev):

   -18.6096 -18.5655 -18.4113 -18.4008 -18.3905 -18.3847 -18.3792 -18.3737
   -18.3703 -18.3699 -18.3079 -18.2960 -18.2951 -18.2881 -18.2834 -18.2788
   -18.2364 -18.2296 -18.2220 -18.2210 -18.2193 -18.2180 -18.2169 -18.2150
   -18.2118 -18.2101 -18.2019 -18.2011 -18.1995 -18.1963 -18.1899 -18.1881
   -18.1844 -18.1803 -18.1736 -18.1714 -18.1649 -18.1648 -18.1628 -18.1621
   -18.1562 -18.1499 -18.1463 -18.1450 -18.1395 -18.1312 -18.1278 -18.1101
    -9.4527  -9.3238  -9.2404  -9.2199  -9.1502  -9.1323  -9.1067  -9.0429
    -9.0080  -8.9724  -8.9475  -8.8982  -8.8544  -8.8400  -8.8107  -8.7865
    -8.7720  -8.7387  -8.7072  -8.6674  -8.6429  -8.5778  -8.5069  -8.4366
    -5.3673  -5.3591  -5.3509  -5.3352  -5.3288  -5.3087  -5.1967  -5.1856
    -5.1842  -5.1766  -5.1703  -5.1649  -5.1583  -5.1432  -5.1366  -5.0862
    -5.0791  -5.0742  -5.0049  -4.9699  -4.9659  -4.9088  -4.9006  -4.8875
    -4.1771  -3.9569  -3.9205  -3.7283  -3.6395  -3.4164  -3.3792  -3.1676
    -0.7348  -0.5887  -0.5500  -0.4729  -0.2895  -0.2064  -0.1730  -0.1375
    -0.0404   0.0251   0.1186   0.1624   0.3355   0.3582   0.4758   0.5013
     0.5316   0.5422   0.5938   0.5982   0.6336   0.6617   0.7067   0.7420
     0.8301   0.8606   0.9070   0.9614   0.9978   1.0372   1.0538   1.0948
     1.1185   1.1749   1.1916   1.2109   1.2599   1.2856   1.3334   1.3725
     1.3956   1.4274   1.4613   1.4951   1.5006   1.5509   1.5702   1.6092
     1.6614   1.6753   1.7020   1.7138   1.7196   1.7535   1.7646   1.7859
     1.8213   1.8448   1.8660   1.8870   1.9359   1.9661   2.0089   2.0651
     2.0807   2.1320   2.1725   2.2491   2.3257   2.4673   2.5485   2.6553

          k = 0.3750-0.3750 0.1250 (132616 PWs)   bands (ev):

   -18.6096 -18.5655 -18.4113 -18.4008 -18.3905 -18.3847 -18.3792 -18.3737
   -18.3703 -18.3699 -18.3079 -18.2960 -18.2951 -18.2881 -18.2834 -18.2788
   -18.2364 -18.2296 -18.2220 -18.2210 -18.2193 -18.2180 -18.2169 -18.2150
   -18.2118 -18.2101 -18.2019 -18.2011 -18.1995 -18.1963 -18.1899 -18.1881
   -18.1844 -18.1803 -18.1736 -18.1714 -18.1649 -18.1648 -18.1628 -18.1621
   -18.1562 -18.1499 -18.1463 -18.1450 -18.1395 -18.1312 -18.1278 -18.1101
    -9.4381  -9.3567  -9.2428  -9.1943  -9.1551  -9.1287  -9.0930  -9.0467
    -9.0169  -8.9881  -8.9430  -8.9060  -8.8666  -8.8274  -8.8026  -8.7874
    -8.7578  -8.7300  -8.7110  -8.6741  -8.6347  -8.5911  -8.5133  -8.4307
    -5.3673  -5.3591  -5.3511  -5.3351  -5.3285  -5.3085  -5.1968  -5.1851
    -5.1841  -5.1766  -5.1711  -5.1641  -5.1584  -5.1433  -5.1367  -5.0863
    -5.0789  -5.0745  -5.0053  -4.9699  -4.9659  -4.9084  -4.9011  -4.8874
    -4.1614  -3.9590  -3.9107  -3.7019  -3.6548  -3.4393  -3.4004  -3.1925
    -0.6492  -0.5560  -0.4469  -0.4007  -0.3372  -0.3106  -0.1734  -0.0794
    -0.0515   0.0207   0.0868   0.1851   0.2944   0.4209   0.4433   0.4661
     0.5070   0.5358   0.5668   0.6031   0.6387   0.6641   0.6845   0.7217
     0.8292   0.8770   0.9041   0.9226   0.9810   1.0222   1.0590   1.0938
     1.1386   1.1643   1.1942   1.2272   1.2631   1.2955   1.3313   1.3585
     1.3681   1.4147   1.4378   1.5009   1.5124   1.5590   1.5655   1.5977
     1.6270   1.6527   1.6788   1.7176   1.7430   1.7608   1.7860   1.8119
     1.8240   1.8468   1.8818   1.9165   1.9341   1.9638   2.0010   2.0743
     2.0914   2.1336   2.1961   2.2305   2.3138   2.4470   2.4846   2.6373

          k =-0.3750-0.3750-0.1250 (132616 PWs)   bands (ev):

   -18.6096 -18.5655 -18.4113 -18.4008 -18.3905 -18.3847 -18.3792 -18.3737
   -18.3703 -18.3699 -18.3079 -18.2960 -18.2951 -18.2881 -18.2834 -18.2788
   -18.2364 -18.2296 -18.2220 -18.2210 -18.2193 -18.2180 -18.2169 -18.2150
   -18.2118 -18.2101 -18.2019 -18.2011 -18.1995 -18.1963 -18.1899 -18.1881
   -18.1844 -18.1803 -18.1736 -18.1714 -18.1649 -18.1648 -18.1628 -18.1621
   -18.1562 -18.1499 -18.1463 -18.1450 -18.1395 -18.1312 -18.1278 -18.1101
    -9.4404  -9.3483  -9.2552  -9.1937  -9.1523  -9.1209  -9.0986  -9.0403
    -9.0253  -8.9856  -8.9382  -8.9115  -8.8655  -8.8291  -8.8039  -8.7846
    -8.7558  -8.7315  -8.7118  -8.6742  -8.6349  -8.5906  -8.5131  -8.4309
    -5.3674  -5.3593  -5.3509  -5.3351  -5.3284  -5.3085  -5.1972  -5.1849
    -5.1840  -5.1764  -5.1703  -5.1650  -5.1584  -5.1433  -5.1367  -5.0864
    -5.0789  -5.0744  -5.0052  -4.9699  -4.9660  -4.9084  -4.9011  -4.8875
    -4.1657  -3.9477  -3.9098  -3.7336  -3.6191  -3.4512  -3.4077  -3.1852
    -0.6635  -0.5488  -0.4379  -0.3949  -0.3471  -0.2345  -0.1808  -0.1573
    -0.0531   0.0042   0.0838   0.1824   0.3070   0.3869   0.4608   0.4783
     0.5136   0.5474   0.5790   0.6147   0.6357   0.6810   0.6904   0.7318
     0.7939   0.8828   0.9140   0.9277   0.9714   1.0157   1.0483   1.0868
     1.1386   1.1770   1.1980   1.2157   1.2508   1.2795   1.3336   1.3541
     1.3922   1.4272   1.4675   1.4849   1.5061   1.5254   1.5791   1.5954
     1.6290   1.6570   1.6802   1.7032   1.7491   1.7617   1.7895   1.8098
     1.8293   1.8739   1.8822   1.8963   1.9272   1.9556   1.9912   2.0711
     2.1051   2.1371   2.1919   2.2336   2.3383   2.4080   2.4968   2.6438

          k = 0.3750 0.3750-0.1250 (132616 PWs)   bands (ev):

   -18.6096 -18.5655 -18.4113 -18.4008 -18.3905 -18.3847 -18.3792 -18.3737
   -18.3703 -18.3699 -18.3079 -18.2960 -18.2951 -18.2881 -18.2834 -18.2788
   -18.2364 -18.2296 -18.2220 -18.2210 -18.2193 -18.2180 -18.2169 -18.2150
   -18.2118 -18.2101 -18.2019 -18.2011 -18.1995 -18.1963 -18.1899 -18.1881
   -18.1844 -18.1803 -18.1736 -18.1714 -18.1649 -18.1648 -18.1628 -18.1621
   -18.1562 -18.1499 -18.1463 -18.1450 -18.1395 -18.1312 -18.1278 -18.1101
    -9.4406  -9.3482  -9.2534  -9.1940  -9.1576  -9.1159  -9.1007  -9.0393
    -9.0237  -8.9876  -8.9421  -8.9047  -8.8654  -8.8309  -8.8014  -8.7851
    -8.7604  -8.7350  -8.7062  -8.6748  -8.6341  -8.5909  -8.5133  -8.4307
    -5.3674  -5.3593  -5.3509  -5.3351  -5.3284  -5.3084  -5.1968  -5.1853
    -5.1840  -5.1767  -5.1711  -5.1641  -5.1583  -5.1433  -5.1367  -5.0864
    -5.0788  -5.0745  -5.0053  -4.9699  -4.9660  -4.9084  -4.9011  -4.8875
    -4.1665  -3.9489  -3.9046  -3.7460  -3.6084  -3.4508  -3.4014  -3.1945
    -0.6419  -0.5492  -0.4295  -0.4024  -0.3306  -0.2452  -0.1869  -0.1666
    -0.0726  -0.0025   0.0790   0.1493   0.3212   0.4174   0.4502   0.4833
     0.5087   0.5483   0.5714   0.6224   0.6425   0.6721   0.6920   0.7477
     0.8058   0.8601   0.9103   0.9365   0.9857   1.0169   1.0478   1.1027
     1.1491   1.1704   1.1934   1.2310   1.2571   1.2841   1.3131   1.3328
     1.3832   1.4115   1.4627   1.5029   1.5098   1.5432   1.5663   1.5884
     1.6322   1.6511   1.6668   1.7120   1.7542   1.7689   1.7728   1.8271
     1.8410   1.8717   1.8791   1.8993   1.9167   1.9526   2.0018   2.0762
     2.1197   2.1405   2.1899   2.2336   2.3414   2.3978   2.4942   2.6102

          k =-0.3750 0.3750 0.1250 (132616 PWs)   bands (ev):

   -18.6096 -18.5655 -18.4113 -18.4008 -18.3905 -18.3847 -18.3792 -18.3737
   -18.3703 -18.3699 -18.3079 -18.2960 -18.2951 -18.2881 -18.2834 -18.2788
   -18.2364 -18.2296 -18.2220 -18.2210 -18.2193 -18.2180 -18.2169 -18.2150
   -18.2118 -18.2101 -18.2019 -18.2011 -18.1995 -18.1963 -18.1899 -18.1881
   -18.1844 -18.1803 -18.1736 -18.1714 -18.1649 -18.1648 -18.1628 -18.1621
   -18.1562 -18.1499 -18.1463 -18.1450 -18.1395 -18.1312 -18.1278 -18.1101
    -9.4380  -9.3567  -9.2424  -9.1949  -9.1566  -9.1256  -9.0950  -9.0509
    -9.0105  -8.9909  -8.9359  -8.9140  -8.8605  -8.8287  -8.8064  -8.7840
    -8.7652  -8.7279  -8.7084  -8.6725  -8.6360  -8.5910  -8.5131  -8.4309
    -5.3673  -5.3591  -5.3511  -5.3351  -5.3285  -5.3085  -5.1972  -5.1851
    -5.1840  -5.1763  -5.1703  -5.1651  -5.1584  -5.1433  -5.1367  -5.0864
    -5.0789  -5.0744  -5.0051  -4.9699  -4.9659  -4.9084  -4.9010  -4.8874
    -4.1625  -3.9576  -3.9125  -3.6991  -3.6528  -3.4370  -3.4106  -3.1878
    -0.6593  -0.5449  -0.4450  -0.4092  -0.3468  -0.3051  -0.1579  -0.0707
    -0.0514   0.0155   0.0897   0.1806   0.2821   0.3962   0.4331   0.4901
     0.5222   0.5365   0.5756   0.6024   0.6226   0.6671   0.6876   0.7360
     0.8122   0.8773   0.9034   0.9276   0.9774   1.0358   1.0455   1.0987
     1.1271   1.1691   1.2045   1.2332   1.2479   1.2780   1.3333   1.3465
     1.3815   1.4457   1.4807   1.4914   1.5014   1.5242   1.5717   1.5828
     1.6185   1.6651   1.6802   1.7227   1.7403   1.7642   1.7808   1.8077
     1.8300   1.8496   1.8752   1.9147   1.9332   1.9590   2.0040   2.0789
     2.1047   2.1115   2.2065   2.2447   2.3109   2.4472   2.4791   2.6293

          k =-0.3750-0.3750 0.3750 (132612 PWs)   bands (ev):

   -18.6096 -18.5655 -18.4113 -18.4008 -18.3905 -18.3847 -18.3792 -18.3737
   -18.3703 -18.3699 -18.3079 -18.2960 -18.2951 -18.2881 -18.2834 -18.2788
   -18.2364 -18.2296 -18.2220 -18.2210 -18.2193 -18.2180 -18.2169 -18.2150
   -18.2118 -18.2101 -18.2019 -18.2011 -18.1995 -18.1963 -18.1899 -18.1881
   -18.1844 -18.1803 -18.1736 -18.1714 -18.1649 -18.1648 -18.1628 -18.1621
   -18.1562 -18.1499 -18.1463 -18.1450 -18.1395 -18.1312 -18.1278 -18.1101
    -9.4362  -9.3372  -9.2477  -9.2120  -9.1713  -9.1288  -9.1070  -9.0351
    -9.0125  -8.9826  -8.9382  -8.8967  -8.8582  -8.8394  -8.8051  -8.7838
    -8.7699  -8.7275  -8.7043  -8.6693  -8.6374  -8.5909  -8.5072  -8.4378
    -5.3674  -5.3593  -5.3509  -5.3353  -5.3284  -5.3085  -5.1965  -5.1855
    -5.1844  -5.1763  -5.1724  -5.1630  -5.1583  -5.1431  -5.1367  -5.0862
    -5.0789  -5.0743  -5.0047  -4.9697  -4.9659  -4.9086  -4.9008  -4.8876
    -4.0536  -3.8722  -3.8076  -3.7818  -3.6374  -3.5994  -3.4849  -3.3643
    -0.4283  -0.3689  -0.2914  -0.2437  -0.2137  -0.1893  -0.1618  -0.1114
    -0.0285   0.0351   0.1206   0.2045   0.2782   0.3606   0.3763   0.4445
     0.4961   0.5122   0.5511   0.5696   0.5918   0.6443   0.6635   0.7142
     0.8135   0.8633   0.9155   0.9307   0.9730   1.0056   1.0258   1.0506
     1.0687   1.1109   1.1346   1.1692   1.2040   1.2354   1.2477   1.3029
     1.3521   1.3910   1.4406   1.4805   1.5151   1.5468   1.6135   1.6469
     1.6541   1.6967   1.7166   1.7341   1.7536   1.7835   1.8140   1.8416
     1.8492   1.8689   1.8725   1.8922   1.9316   1.9507   1.9639   2.0053
     2.0491   2.0723   2.1204   2.1912   2.2281   2.2438   2.3038   2.3835

          k =-0.3750 0.3750-0.3750 (132612 PWs)   bands (ev):

   -18.6096 -18.5655 -18.4113 -18.4008 -18.3905 -18.3847 -18.3792 -18.3737
   -18.3703 -18.3699 -18.3079 -18.2960 -18.2951 -18.2881 -18.2834 -18.2788
   -18.2364 -18.2296 -18.2220 -18.2210 -18.2193 -18.2180 -18.2169 -18.2150
   -18.2118 -18.2101 -18.2019 -18.2011 -18.1995 -18.1963 -18.1899 -18.1881
   -18.1844 -18.1803 -18.1736 -18.1714 -18.1649 -18.1648 -18.1628 -18.1621
   -18.1562 -18.1499 -18.1463 -18.1450 -18.1395 -18.1312 -18.1278 -18.1101
    -9.4337  -9.3462  -9.2365  -9.2127  -9.1682  -9.1369  -9.1050  -9.0347
    -9.0164  -8.9801  -8.9389  -8.8959  -8.8633  -8.8343  -8.8064  -8.7873
    -8.7631  -8.7259  -8.7066  -8.6701  -8.6376  -8.5911  -8.5073  -8.4378
    -5.3673  -5.3592  -5.3511  -5.3352  -5.3285  -5.3085  -5.1965  -5.1855
    -5.1844  -5.1763  -5.1724  -5.1630  -5.1584  -5.1431  -5.1367  -5.0861
    -5.0790  -5.0743  -5.0048  -4.9696  -4.9659  -4.9085  -4.9008  -4.8875
    -4.0453  -3.8873  -3.8141  -3.7641  -3.6625  -3.5840  -3.4807  -3.3621
    -0.4559  -0.3815  -0.3143  -0.2891  -0.2328  -0.1649  -0.1090  -0.0577
     0.0052   0.0645   0.1180   0.2414   0.2670   0.3459   0.3677   0.4340
     0.4788   0.5014   0.5350   0.5479   0.6015   0.6305   0.6855   0.6967
     0.8073   0.8719   0.9094   0.9361   0.9603   0.9882   1.0235   1.0527
     1.0694   1.0947   1.1383   1.1892   1.2114   1.2403   1.2541   1.3131
     1.3356   1.4005   1.4348   1.4777   1.5155   1.5747   1.6090   1.6346
     1.6569   1.7003   1.7225   1.7521   1.7637   1.7913   1.7976   1.8101
     1.8371   1.8531   1.8611   1.9149   1.9303   1.9457   1.9692   2.0022
     2.0644   2.0845   2.1252   2.1692   2.2045   2.2604   2.2811   2.4369

          k = 0.3750-0.3750-0.3750 (132612 PWs)   bands (ev):

   -18.6096 -18.5655 -18.4113 -18.4008 -18.3905 -18.3847 -18.3792 -18.3737
   -18.3703 -18.3699 -18.3079 -18.2960 -18.2951 -18.2881 -18.2834 -18.2788
   -18.2364 -18.2296 -18.2220 -18.2210 -18.2193 -18.2180 -18.2169 -18.2150
   -18.2118 -18.2101 -18.2019 -18.2011 -18.1995 -18.1963 -18.1899 -18.1881
   -18.1844 -18.1803 -18.1736 -18.1714 -18.1649 -18.1648 -18.1628 -18.1621
   -18.1562 -18.1499 -18.1463 -18.1450 -18.1395 -18.1312 -18.1278 -18.1101
    -9.4337  -9.3461  -9.2361  -9.2140  -9.1669  -9.1375  -9.1052  -9.0387
    -9.0134  -8.9798  -8.9321  -8.9046  -8.8556  -8.8356  -8.8108  -8.7810
    -8.7729  -8.7237  -8.7050  -8.6679  -8.6393  -8.5910  -8.5070  -8.4380
    -5.3673  -5.3592  -5.3511  -5.3352  -5.3285  -5.3085  -5.1970  -5.1853
    -5.1844  -5.1759  -5.1718  -5.1637  -5.1583  -5.1432  -5.1366  -5.0862
    -5.0790  -5.0742  -5.0046  -4.9697  -4.9659  -4.9086  -4.9007  -4.8875
    -4.0493  -3.8624  -3.8203  -3.8029  -3.6036  -3.5782  -3.5384  -3.3451
    -0.4735  -0.3858  -0.3194  -0.2643  -0.1982  -0.1665  -0.1405  -0.0422
     0.0037   0.0744   0.1152   0.1893   0.2704   0.3465   0.3620   0.4625
     0.4871   0.5156   0.5317   0.5640   0.5811   0.6407   0.6720   0.6984
     0.8157   0.8596   0.8817   0.9313   0.9713   0.9996   1.0198   1.0470
     1.0779   1.1104   1.1620   1.1688   1.1950   1.2083   1.2756   1.3173
     1.3656   1.3908   1.4420   1.4777   1.5239   1.5547   1.5987   1.6227
     1.6619   1.7089   1.7283   1.7499   1.7565   1.7770   1.7923   1.8229
     1.8353   1.8441   1.8765   1.8970   1.9365   1.9568   1.9908   2.0135
     2.0559   2.0858   2.1109   2.1745   2.1967   2.2537   2.2997   2.4228

     highest occupied level (ev):     3.1085

!    total energy              =   -2256.28449351 Ry
     estimated scf accuracy    <          6.2E-11 Ry

     The total energy is the sum of the following terms:
     one-electron contribution =    -987.44814088 Ry
     hartree contribution      =     621.82701684 Ry
     xc contribution           =    -647.46667582 Ry
     ewald contribution        =   -1243.19669365 Ry

     convergence has been achieved in  15 iterations

     Forces acting on atoms (cartesian axes, Ry/au):

     atom    1 type  1   force =    -0.00024543   -0.00082155    0.00001988
     atom    2 type  2   force =    -0.00984542    0.00419293    0.00450334
     atom    3 type  3   force =    -0.02035442    0.00199177    0.00613472
     atom    4 type  3   force =     0.00456883   -0.00383264    0.00147572
     atom    5 type  3   force =    -0.00306641    0.00885142    0.00503118
     atom    6 type  1   force =    -0.00321806   -0.00466659    0.00608361
     atom    7 type  2   force =     0.00653365    0.01392881   -0.00194121
     atom    8 type  3   force =    -0.00335353    0.00997675   -0.00468722
     atom    9 type  3   force =     0.00078087   -0.00327454    0.00551186
     atom   10 type  3   force =     0.00131459   -0.01063900   -0.00295399
     atom   11 type  1   force =     0.00687783    0.00170013    0.00136951
     atom   12 type  2   force =     0.00538938   -0.00370236   -0.00760307
     atom   13 type  3   force =    -0.01233706   -0.00715058    0.00477840
     atom   14 type  3   force =    -0.00680796   -0.00003915   -0.00354956
     atom   15 type  3   force =     0.00471527   -0.00900726    0.00392899
     atom   16 type  1   force =     0.00489835    0.00353454   -0.00422234
     atom   17 type  2   force =    -0.00521243    0.00771354   -0.01403034
     atom   18 type  3   force =     0.00248740    0.00261113   -0.00526220
     atom   19 type  3   force =    -0.00258312   -0.00147517    0.02098838
     atom   20 type  3   force =     0.00070659   -0.01351763   -0.00499133
     atom   21 type  1   force =    -0.00028475   -0.00095609    0.00007148
     atom   22 type  2   force =     0.01243520   -0.00166322   -0.00086959
     atom   23 type  3   force =     0.00636663    0.00498232   -0.00442313
     atom   24 type  3   force =    -0.00500450   -0.00300444    0.00019896
     atom   25 type  3   force =    -0.00611568   -0.00358051   -0.00132483
     atom   26 type  1   force =     0.00433521    0.00207146    0.00451226
     atom   27 type  2   force =    -0.01530708   -0.01113584   -0.00721271
     atom   28 type  3   force =    -0.00919797    0.01113580   -0.01063402
     atom   29 type  3   force =     0.00957543    0.00485823   -0.00060714
     atom   30 type  3   force =    -0.01252179   -0.00623559    0.00069852
     atom   31 type  1   force =    -0.00363112    0.00120025   -0.00108725
     atom   32 type  2   force =     0.00563122    0.00851213   -0.00667295
     atom   33 type  3   force =     0.02276480   -0.00167507    0.00906193
     atom   34 type  3   force =    -0.00201077   -0.00493431   -0.00158467
     atom   35 type  3   force =    -0.00046986    0.00754475    0.00529105
     atom   36 type  1   force =    -0.00239154   -0.01474213    0.01497909
     atom   37 type  2   force =     0.01217215    0.02156911    0.00441828
     atom   38 type  3   force =     0.00999167    0.00992041   -0.00274140
     atom   39 type  3   force =    -0.00776089   -0.01183294   -0.01224558
     atom   40 type  3   force =     0.01017474   -0.00840887   -0.00041262

     Total force =     0.083991     Total SCF correction =     0.000031


     Computing stress (Cartesian axis) and pressure

          total   stress  (Ry/bohr**3)                   (kbar)     P=       -7.83
  -0.00005735  -0.00000144   0.00000016           -8.44       -0.21        0.02
  -0.00000144  -0.00004594  -0.00000839           -0.21       -6.76       -1.23
   0.00000016  -0.00000839  -0.00005647            0.02       -1.23       -8.31

 
     init_run     :     19.76s CPU     16.79s WALL (       1 calls)
     electrons    :    201.07s CPU    212.48s WALL (       1 calls)
     forces       :      8.71s CPU      3.91s WALL (       1 calls)
     stress       :     31.39s CPU     30.52s WALL (       1 calls)

     Called by init_run:
     wfcinit      :     11.84s CPU     13.74s WALL (       1 calls)
                                       13.74s GPU  (       1 calls)
     potinit      :      4.57s CPU      1.39s WALL (       1 calls)
     hinit0       :      2.80s CPU      0.99s WALL (       1 calls)

     Called by electrons:
     c_bands      :    120.48s CPU    170.61s WALL (      16 calls)
     sum_band     :     21.60s CPU     20.69s WALL (      16 calls)
                                       20.69s GPU  (      16 calls)
     v_of_rho     :     54.67s CPU     16.44s WALL (      16 calls)
     mix_rho      :      6.41s CPU      4.98s WALL (      16 calls)

     Called by c_bands:
     init_us_2    :      2.21s CPU      2.99s WALL (     280 calls)
                                        2.99s GPU  (     280 calls)
     cegterg      :     80.51s CPU    128.11s WALL (     128 calls)

     Called by *egterg:
     cdiaghg      :     13.63s CPU     26.10s WALL (     651 calls)
                                       26.06s GPU  (     651 calls)
     h_psi        :     55.10s CPU     73.95s WALL (     667 calls)
                                       73.51s GPU  (     667 calls)
     g_psi        :      0.00s CPU      0.36s WALL (     531 calls)
                                        0.35s GPU  (     531 calls)

     Called by h_psi:
     h_psi:calbec :      0.32s CPU      9.93s WALL (     667 calls)
                                        9.92s GPU  (     667 calls)
     vloc_psi     :     40.15s CPU     54.19s WALL (     667 calls)
                                       53.28s GPU  (     667 calls)
     add_vuspsi   :      0.34s CPU      9.75s WALL (     667 calls)
                                        9.74s GPU  (     667 calls)

     General routines
     calbec       :      0.32s CPU      0.40s WALL (     707 calls)
     fft          :     25.64s CPU      6.55s WALL (     185 calls)
                                        0.01s GPU  (       6 calls)
     ffts         :      2.60s CPU      0.68s WALL (      16 calls)
     fftw         :      0.63s CPU     62.75s WALL (   10488 calls)
                                       46.92s GPU  (   10488 calls)
 
     Parallel routines
 
     PWSCF        :   4m21.67s CPU   4m24.55s WALL

 
   This run was terminated on:  21:33:18  22Apr2021            

=------------------------------------------------------------------------------=
   JOB DONE.
=------------------------------------------------------------------------------=
