
     Program PWSCF v.6.7MaX starts on 22Apr2021 at 19:15:42 

     This program is part of the open-source Quantum ESPRESSO suite
     for quantum simulation of materials; please cite
         "P. Giannozzi et al., J. Phys.:Condens. Matter 21 395502 (2009);
         "P. Giannozzi et al., J. Phys.:Condens. Matter 29 465901 (2017);
         "P. Giannozzi et al., J. Chem. Phys. 152 154105 (2020);
          URL http://www.quantum-espresso.org", 
     in publications or presentations arising from this work. More details at
     http://www.quantum-espresso.org/quote

     Parallel version (MPI & OpenMP), running on      16 processor cores
     Number of MPI processes:                 4
     Threads/MPI process:                     4

     MPI processes distributed on     1 nodes
     K-points division:     npool     =       4
     Reading input from ESP_42.pwi
Warning: card &CELL ignored
Warning: card / ignored

     Current dimensions of program PWSCF are:
     Max number of different atomic species (ntypx) = 10
     Max number of k-points (npk) =  40000
     Max angular momentum in pseudopotentials (lmaxx) =  3
     Message from routine read_pp_mesh:
     mesh size missing, using the one in header
     Message from routine read_pp_mesh:
     mesh size missing, using the one in header
     Message from routine read_pp_mesh:
     mesh size missing, using the one in header

     Subspace diagonalization in iterative solution of the eigenvalue problem:
     a serial algorithm will be used

 
     G-vector sticks info
     --------------------
     sticks:   dense  smooth     PW     G-vecs:    dense   smooth      PW
     Sum       12589   12589   3289              1061107  1061107  140905
 
     Using Slab Decomposition
 


     bravais-lattice index     =            0
     lattice parameter (alat)  =      23.7585  a.u.
     unit-cell volume          =   13410.8736 (a.u.)^3
     number of atoms/cell      =           40
     number of atomic types    =            3
     number of electrons       =       352.00
     number of Kohn-Sham states=          176
     kinetic-energy cutoff     =      70.0000  Ry
     charge density cutoff     =     280.0000  Ry
     scf convergence threshold =      1.0E-10
     mixing beta               =       0.7000
     number of iterations used =            8  plain     mixing
     Exchange-correlation= PBESOL
                           (   1   4  10   8   0   0   0)

     GPU acceleration is ACTIVE.


     celldm(1)=  23.758500  celldm(2)=   0.000000  celldm(3)=   0.000000
     celldm(4)=   0.000000  celldm(5)=   0.000000  celldm(6)=   0.000000

     crystal axes: (cart. coord. in units of alat)
               a(1) = (   1.000000   0.000000   0.000000 )  
               a(2) = (   0.000000   1.000000   0.000000 )  
               a(3) = (   0.000000   0.000000   1.000000 )  

     reciprocal axes: (cart. coord. in units 2 pi/alat)
               b(1) = (  1.000000  0.000000  0.000000 )  
               b(2) = (  0.000000  1.000000  0.000000 )  
               b(3) = (  0.000000  0.000000  1.000000 )  


     PseudoPot. # 1 for Cs read from file:
     /m100/home/userexternal/lmonacel/espresso/pseudo/Cs-nc-pbesol.upf
     MD5 check sum: 9d2f2206a14dc5b3b3f3fbfae186bed4
     Pseudo is Norm-conserving + core correction, Zval =  9.0
     Generated using ONCVPSP code by D. R. Hamann
     Using radial grid of 2384 points,  8 beta functions with: 
                l(1) =   0
                l(2) =   0
                l(3) =   1
                l(4) =   1
                l(5) =   2
                l(6) =   2
                l(7) =   3
                l(8) =   3

     PseudoPot. # 2 for Sn read from file:
     /m100/home/userexternal/lmonacel/espresso/pseudo/Sn-nc-pbesol.upf
     MD5 check sum: c2995d571af40102bfea7461443d92cf
     Pseudo is Norm-conserving + core correction, Zval = 14.0
     Generated using ONCVPSP code by D. R. Hamann
     Using radial grid of 1628 points,  6 beta functions with: 
                l(1) =   0
                l(2) =   0
                l(3) =   1
                l(4) =   1
                l(5) =   2
                l(6) =   2

     PseudoPot. # 3 for I  read from file:
     /m100/home/userexternal/lmonacel/espresso/pseudo/I-nc-pbesol.upf
     MD5 check sum: 80ed5ceb2eb9c553cfb6760a299d9c5b
     Pseudo is Norm-conserving + core correction, Zval =  7.0
     Generated using ONCVPSP code by D. R. Hamann
     Using radial grid of 1182 points,  6 beta functions with: 
                l(1) =   0
                l(2) =   0
                l(3) =   1
                l(4) =   1
                l(5) =   2
                l(6) =   2

     atomic species   valence    mass     pseudopotential
        Cs             9.00   132.90545     Cs( 1.00)
        Sn            14.00   118.71000     Sn( 1.00)
        I              7.00   126.90447     I ( 1.00)

     No symmetry found



   Cartesian axes

     site n.     atom                  positions (alat units)
         1           Cs  tau(   1) = (   0.2630539   0.2386355   0.2389773  )
         2           Sn  tau(   2) = (  -0.0097643   0.0077748   0.0015995  )
         3           I   tau(   3) = (   0.2504474  -0.0028275  -0.0141649  )
         4           I   tau(   4) = (   0.0012172  -0.0096172   0.2591774  )
         5           I   tau(   5) = (   0.0537182   0.2316907  -0.0004403  )
         6           Cs  tau(   6) = (   0.2464336   0.2832481   0.7644195  )
         7           Sn  tau(   7) = (   0.0038897  -0.0038580   0.4938119  )
         8           I   tau(   8) = (   0.2515671   0.0249551   0.4836026  )
         9           I   tau(   9) = (   0.0060050   0.0109563   0.7512747  )
        10           I   tau(  10) = (  -0.0323264   0.2570374   0.5136531  )
        11           Cs  tau(  11) = (   0.2710720   0.7223543   0.2421161  )
        12           Sn  tau(  12) = (  -0.0113655   0.5018664  -0.0087312  )
        13           I   tau(  13) = (   0.2399691   0.5006636  -0.0100649  )
        14           I   tau(  14) = (   0.0519977   0.4972665   0.2409486  )
        15           I   tau(  15) = (  -0.0185205   0.7372411  -0.0256384  )
        16           Cs  tau(  16) = (   0.2458467   0.7456277   0.7897727  )
        17           Sn  tau(  17) = (  -0.0012619   0.5065370   0.4944296  )
        18           I   tau(  18) = (   0.2474596   0.5116501   0.5180380  )
        19           I   tau(  19) = (  -0.0291866   0.5159257   0.7546425  )
        20           I   tau(  20) = (  -0.0014126   0.7490769   0.5024201  )
        21           Cs  tau(  21) = (   0.7451632   0.2722153   0.2350400  )
        22           Sn  tau(  22) = (   0.5031204   0.0003512   0.0022563  )
        23           I   tau(  23) = (   0.7537293   0.0301007   0.0244990  )
        24           I   tau(  24) = (   0.4825470   0.0099110   0.2242973  )
        25           I   tau(  25) = (   0.4883675   0.2503702  -0.0145018  )
        26           Cs  tau(  26) = (   0.7794762   0.2237802   0.7563835  )
        27           Sn  tau(  27) = (   0.4936677  -0.0249567   0.4909737  )
        28           I   tau(  28) = (   0.7358034  -0.0111600   0.4922398  )
        29           I   tau(  29) = (   0.5208910  -0.0191512   0.7343306  )
        30           I   tau(  30) = (   0.5284696   0.2573897   0.4874672  )
        31           Cs  tau(  31) = (   0.7403994   0.7620750   0.2360080  )
        32           Sn  tau(  32) = (   0.5057352   0.5015133   0.0206357  )
        33           I   tau(  33) = (   0.7370622   0.4777621   0.0508126  )
        34           I   tau(  34) = (   0.4696785   0.5002983   0.2515784  )
        35           I   tau(  35) = (   0.5238712   0.7391233   0.0123523  )
        36           Cs  tau(  36) = (   0.7625288   0.7589559   0.7690301  )
        37           Sn  tau(  37) = (   0.4953829   0.4884130   0.5090731  )
        38           I   tau(  38) = (   0.7466540   0.5255400   0.4682434  )
        39           I   tau(  39) = (   0.5043817   0.4825678   0.7508691  )
        40           I   tau(  40) = (   0.4503493   0.7469266   0.5073280  )

     number of k points=    32
                       cart. coord. in units 2pi/alat
        k(    1) = (   0.1250000   0.1250000   0.1250000), wk =   0.0625000
        k(    2) = (   0.1250000   0.1250000   0.3750000), wk =   0.0625000
        k(    3) = (   0.1250000   0.3750000   0.3750000), wk =   0.0625000
        k(    4) = (   0.3750000   0.3750000   0.3750000), wk =   0.0625000
        k(    5) = (  -0.1250000  -0.1250000   0.1250000), wk =   0.0625000
        k(    6) = (  -0.1250000   0.1250000  -0.1250000), wk =   0.0625000
        k(    7) = (   0.1250000  -0.1250000  -0.1250000), wk =   0.0625000
        k(    8) = (  -0.1250000  -0.1250000   0.3750000), wk =   0.0625000
        k(    9) = (  -0.1250000   0.1250000  -0.3750000), wk =   0.0625000
        k(   10) = (   0.1250000  -0.1250000  -0.3750000), wk =   0.0625000
        k(   11) = (   0.3750000  -0.1250000   0.1250000), wk =   0.0625000
        k(   12) = (  -0.3750000  -0.1250000  -0.1250000), wk =   0.0625000
        k(   13) = (   0.3750000   0.1250000  -0.1250000), wk =   0.0625000
        k(   14) = (  -0.3750000   0.1250000   0.1250000), wk =   0.0625000
        k(   15) = (  -0.1250000   0.3750000   0.1250000), wk =   0.0625000
        k(   16) = (  -0.1250000  -0.3750000  -0.1250000), wk =   0.0625000
        k(   17) = (   0.1250000   0.3750000  -0.1250000), wk =   0.0625000
        k(   18) = (   0.1250000  -0.3750000   0.1250000), wk =   0.0625000
        k(   19) = (  -0.1250000  -0.3750000   0.3750000), wk =   0.0625000
        k(   20) = (  -0.1250000   0.3750000  -0.3750000), wk =   0.0625000
        k(   21) = (   0.1250000  -0.3750000  -0.3750000), wk =   0.0625000
        k(   22) = (   0.3750000   0.1250000  -0.3750000), wk =   0.0625000
        k(   23) = (  -0.3750000  -0.1250000  -0.3750000), wk =   0.0625000
        k(   24) = (   0.3750000  -0.1250000   0.3750000), wk =   0.0625000
        k(   25) = (  -0.3750000   0.1250000   0.3750000), wk =   0.0625000
        k(   26) = (   0.3750000  -0.3750000   0.1250000), wk =   0.0625000
        k(   27) = (  -0.3750000  -0.3750000  -0.1250000), wk =   0.0625000
        k(   28) = (   0.3750000   0.3750000  -0.1250000), wk =   0.0625000
        k(   29) = (  -0.3750000   0.3750000   0.1250000), wk =   0.0625000
        k(   30) = (  -0.3750000  -0.3750000   0.3750000), wk =   0.0625000
        k(   31) = (  -0.3750000   0.3750000  -0.3750000), wk =   0.0625000
        k(   32) = (   0.3750000  -0.3750000  -0.3750000), wk =   0.0625000

     Dense  grid:  1061107 G-vectors     FFT dimensions: ( 128, 128, 128)

     Estimated max dynamical RAM per process >       6.82 GB

     Estimated total dynamical RAM >      27.27 GB

     Initial potential from superposition of free atoms

     starting charge  351.69472, renormalised to  352.00000
     Starting wfcs are  208 randomized atomic wfcs

     total cpu time spent up to now is       17.8 secs

     Self-consistent Calculation

     iteration #  1     ecut=    70.00 Ry     beta= 0.70
     Davidson diagonalization with overlap
     ethr =  1.00E-02,  avg # of iterations =  2.0

     Threshold (ethr) on eigenvalues was too large:
     Diagonalizing with lowered threshold

     Davidson diagonalization with overlap
     ethr =  2.13E-04,  avg # of iterations =  4.0

     total cpu time spent up to now is       38.7 secs

     total energy              =   -2256.03513679 Ry
     estimated scf accuracy    <       0.64743274 Ry

     iteration #  2     ecut=    70.00 Ry     beta= 0.70
     Davidson diagonalization with overlap
     ethr =  1.84E-04,  avg # of iterations =  3.3

     total cpu time spent up to now is       51.6 secs

     total energy              =   -2256.22815857 Ry
     estimated scf accuracy    <       0.31549264 Ry

     iteration #  3     ecut=    70.00 Ry     beta= 0.70
     Davidson diagonalization with overlap
     ethr =  8.96E-05,  avg # of iterations =  2.9

     total cpu time spent up to now is       63.3 secs

     total energy              =   -2256.28964462 Ry
     estimated scf accuracy    <       0.03034167 Ry

     iteration #  4     ecut=    70.00 Ry     beta= 0.70
     Davidson diagonalization with overlap
     ethr =  8.62E-06,  avg # of iterations =  4.1

     total cpu time spent up to now is       76.2 secs

     total energy              =   -2256.29946384 Ry
     estimated scf accuracy    <       0.00461035 Ry

     iteration #  5     ecut=    70.00 Ry     beta= 0.70
     Davidson diagonalization with overlap
     ethr =  1.31E-06,  avg # of iterations =  3.5

     total cpu time spent up to now is       88.8 secs

     total energy              =   -2256.30033315 Ry
     estimated scf accuracy    <       0.00112307 Ry

     iteration #  6     ecut=    70.00 Ry     beta= 0.70
     Davidson diagonalization with overlap
     ethr =  3.19E-07,  avg # of iterations =  3.7

     total cpu time spent up to now is      101.3 secs

     total energy              =   -2256.30054877 Ry
     estimated scf accuracy    <       0.00013461 Ry

     iteration #  7     ecut=    70.00 Ry     beta= 0.70
     Davidson diagonalization with overlap
     ethr =  3.82E-08,  avg # of iterations =  6.0

     total cpu time spent up to now is      116.1 secs

     total energy              =   -2256.30060029 Ry
     estimated scf accuracy    <       0.00003020 Ry

     iteration #  8     ecut=    70.00 Ry     beta= 0.70
     Davidson diagonalization with overlap
     ethr =  8.58E-09,  avg # of iterations =  4.0

     total cpu time spent up to now is      129.1 secs

     total energy              =   -2256.30060881 Ry
     estimated scf accuracy    <       0.00000529 Ry

     iteration #  9     ecut=    70.00 Ry     beta= 0.70
     Davidson diagonalization with overlap
     ethr =  1.50E-09,  avg # of iterations =  4.0

     total cpu time spent up to now is      142.6 secs

     total energy              =   -2256.30061064 Ry
     estimated scf accuracy    <       0.00000092 Ry

     iteration # 10     ecut=    70.00 Ry     beta= 0.70
     Davidson diagonalization with overlap
     ethr =  2.62E-10,  avg # of iterations =  3.7

     total cpu time spent up to now is      156.2 secs

     total energy              =   -2256.30061083 Ry
     estimated scf accuracy    <       0.00000031 Ry

     iteration # 11     ecut=    70.00 Ry     beta= 0.70
     Davidson diagonalization with overlap
     ethr =  8.85E-11,  avg # of iterations =  3.6

     total cpu time spent up to now is      169.6 secs

     total energy              =   -2256.30061091 Ry
     estimated scf accuracy    <       0.00000003 Ry

     iteration # 12     ecut=    70.00 Ry     beta= 0.70
     Davidson diagonalization with overlap
     ethr =  8.41E-12,  avg # of iterations =  6.7

     total cpu time spent up to now is      187.5 secs

     total energy              =   -2256.30061094 Ry
     estimated scf accuracy    <       0.00000002 Ry

     iteration # 13     ecut=    70.00 Ry     beta= 0.70
     Davidson diagonalization with overlap
     ethr =  4.80E-12,  avg # of iterations =  2.7

     total cpu time spent up to now is      199.9 secs

     total energy              =   -2256.30061094 Ry
     estimated scf accuracy    <          1.8E-09 Ry

     iteration # 14     ecut=    70.00 Ry     beta= 0.70
     Davidson diagonalization with overlap
     ethr =  5.16E-13,  avg # of iterations =  5.7

     total cpu time spent up to now is      215.8 secs

     total energy              =   -2256.30061095 Ry
     estimated scf accuracy    <          1.4E-10 Ry

     iteration # 15     ecut=    70.00 Ry     beta= 0.70
     Davidson diagonalization with overlap
     ethr =  1.00E-13,  avg # of iterations =  4.3

     total cpu time spent up to now is      229.2 secs

     End of self-consistent calculation

          k = 0.1250 0.1250 0.1250 (132670 PWs)   bands (ev):

   -18.5158 -18.4346 -18.3918 -18.3817 -18.3462 -18.3391 -18.3355 -18.3328
   -18.3297 -18.3214 -18.3199 -18.3133 -18.3131 -18.3035 -18.3019 -18.2922
   -18.2834 -18.2797 -18.2721 -18.2714 -18.2664 -18.2611 -18.2598 -18.2574
   -18.2529 -18.2457 -18.2352 -18.2348 -18.1928 -18.1832 -18.1808 -18.1777
   -18.1752 -18.1715 -18.1690 -18.1638 -18.1599 -18.1584 -18.0856 -18.0771
   -18.0729 -18.0693 -18.0581 -18.0578 -18.0535 -18.0488 -18.0422 -18.0362
    -9.5771  -9.4752  -9.3706  -9.2732  -9.2308  -9.1866  -9.1657  -9.1019
    -9.0271  -9.0162  -8.9314  -8.8980  -8.8541  -8.8457  -8.7893  -8.7543
    -8.7205  -8.6949  -8.6592  -8.6395  -8.5912  -8.5706  -8.5218  -8.4828
    -5.2966  -5.2746  -5.2731  -5.2177  -5.2078  -5.1958  -5.1689  -5.1669
    -5.1579  -5.1561  -5.1512  -5.1447  -5.1361  -5.1350  -5.1183  -5.1128
    -5.1102  -5.1029  -5.0713  -5.0538  -5.0482  -5.0473  -5.0416  -5.0402
    -4.4438  -3.9727  -3.9173  -3.8666  -3.4184  -3.3365  -3.3215  -2.7419
    -0.8209  -0.7418  -0.7010  -0.6255  -0.5847  -0.5300  -0.4918  -0.4251
    -0.3736  -0.3535  -0.2706  -0.1133   0.3193   0.4096   0.4597   0.5477
     0.5987   0.6354   0.7056   0.7204   0.7797   0.8601   0.9080   0.9535
     0.9638   0.9866   1.0092   1.0508   1.0889   1.0975   1.1296   1.1529
     1.1884   1.2347   1.2667   1.2793   1.2930   1.3162   1.3696   1.3844
     1.3958   1.4162   1.4350   1.4488   1.4977   1.5122   1.5549   1.5778
     1.5868   1.6205   1.6457   1.6784   1.6977   1.7180   1.7542   1.7742
     1.8007   1.8447   1.8665   1.9215   1.9861   2.0335   2.0750   2.1141
     2.1742   2.2005   2.2914   2.3209   2.6135   2.7380   2.7798   3.1691

          k = 0.1250 0.1250 0.3750 (132608 PWs)   bands (ev):

   -18.5158 -18.4346 -18.3918 -18.3817 -18.3462 -18.3391 -18.3355 -18.3328
   -18.3297 -18.3214 -18.3199 -18.3133 -18.3131 -18.3035 -18.3019 -18.2922
   -18.2834 -18.2797 -18.2721 -18.2714 -18.2664 -18.2611 -18.2598 -18.2574
   -18.2529 -18.2457 -18.2352 -18.2348 -18.1928 -18.1832 -18.1808 -18.1777
   -18.1752 -18.1715 -18.1690 -18.1638 -18.1599 -18.1584 -18.0856 -18.0771
   -18.0729 -18.0693 -18.0581 -18.0578 -18.0535 -18.0488 -18.0422 -18.0362
    -9.5741  -9.4732  -9.3680  -9.2748  -9.2290  -9.1862  -9.1779  -9.1106
    -9.0316  -9.0155  -8.9449  -8.8963  -8.8409  -8.8272  -8.7882  -8.7494
    -8.7231  -8.6855  -8.6622  -8.6339  -8.6010  -8.5750  -8.5254  -8.4835
    -5.2964  -5.2744  -5.2730  -5.2176  -5.2075  -5.1957  -5.1689  -5.1668
    -5.1584  -5.1565  -5.1515  -5.1441  -5.1363  -5.1357  -5.1184  -5.1106
    -5.1101  -5.1031  -5.0715  -5.0538  -5.0483  -5.0471  -5.0421  -5.0407
    -4.3399  -4.0334  -3.8695  -3.8032  -3.4975  -3.4928  -3.2914  -2.9325
    -0.7991  -0.7300  -0.6809  -0.5619  -0.5168  -0.4055  -0.3110  -0.2546
    -0.1558  -0.0757  -0.0480   0.0100   0.3206   0.3836   0.4479   0.4744
     0.5202   0.5577   0.6168   0.6490   0.6791   0.7114   0.7543   0.8024
     0.8619   0.8892   0.9439   1.0163   1.0498   1.0659   1.1101   1.1369
     1.1751   1.1907   1.2351   1.2692   1.2761   1.3147   1.3503   1.3774
     1.4123   1.4355   1.4534   1.4697   1.4805   1.5170   1.5490   1.5649
     1.5996   1.6318   1.6727   1.7034   1.7529   1.7679   1.7749   1.7949
     1.8191   1.8483   1.8672   1.8901   1.9263   1.9805   2.0012   2.0345
     2.1192   2.1975   2.2419   2.2787   2.4436   2.5581   2.6540   2.9380

          k = 0.1250 0.3750 0.3750 (132616 PWs)   bands (ev):

   -18.5158 -18.4346 -18.3918 -18.3817 -18.3462 -18.3391 -18.3355 -18.3328
   -18.3297 -18.3214 -18.3199 -18.3133 -18.3131 -18.3035 -18.3019 -18.2922
   -18.2834 -18.2797 -18.2721 -18.2714 -18.2665 -18.2611 -18.2598 -18.2574
   -18.2529 -18.2457 -18.2352 -18.2348 -18.1928 -18.1832 -18.1808 -18.1777
   -18.1752 -18.1716 -18.1690 -18.1638 -18.1599 -18.1584 -18.0856 -18.0771
   -18.0729 -18.0693 -18.0580 -18.0578 -18.0535 -18.0488 -18.0422 -18.0362
    -9.5586  -9.4935  -9.3495  -9.2998  -9.2266  -9.1895  -9.1714  -9.1034
    -9.0317  -9.0222  -8.9363  -8.9086  -8.8549  -8.8198  -8.7904  -8.7295
    -8.7250  -8.6783  -8.6602  -8.6344  -8.5961  -8.5786  -8.5282  -8.4908
    -5.2964  -5.2743  -5.2733  -5.2177  -5.2075  -5.1960  -5.1686  -5.1664
    -5.1588  -5.1549  -5.1504  -5.1457  -5.1370  -5.1352  -5.1190  -5.1106
    -5.1096  -5.1034  -5.0713  -5.0544  -5.0483  -5.0471  -5.0418  -5.0405
    -4.2217  -4.0204  -3.9142  -3.7118  -3.6391  -3.4784  -3.3737  -3.1074
    -0.7714  -0.7071  -0.4519  -0.3811  -0.3645  -0.3033  -0.2260  -0.1295
    -0.0718  -0.0487   0.1201   0.1383   0.2396   0.3472   0.3952   0.4339
     0.4897   0.5229   0.5729   0.5841   0.6037   0.6504   0.6819   0.7572
     0.8144   0.8708   0.9061   0.9742   0.9967   1.0217   1.0497   1.0736
     1.1160   1.1321   1.1668   1.2170   1.2513   1.2775   1.3407   1.3563
     1.3846   1.4238   1.4420   1.4778   1.4870   1.5152   1.5575   1.5868
     1.6254   1.6724   1.7057   1.7273   1.7379   1.7687   1.8100   1.8175
     1.8399   1.8804   1.9025   1.9152   1.9338   1.9530   1.9841   2.0055
     2.0630   2.0987   2.1583   2.2138   2.2653   2.3956   2.5711   2.7002

          k = 0.3750 0.3750 0.3750 (132612 PWs)   bands (ev):

   -18.5158 -18.4346 -18.3918 -18.3817 -18.3462 -18.3391 -18.3355 -18.3328
   -18.3297 -18.3214 -18.3199 -18.3133 -18.3131 -18.3035 -18.3019 -18.2922
   -18.2834 -18.2797 -18.2721 -18.2714 -18.2665 -18.2611 -18.2598 -18.2574
   -18.2529 -18.2457 -18.2352 -18.2348 -18.1928 -18.1832 -18.1808 -18.1777
   -18.1752 -18.1716 -18.1690 -18.1638 -18.1599 -18.1584 -18.0856 -18.0771
   -18.0729 -18.0693 -18.0580 -18.0578 -18.0535 -18.0488 -18.0422 -18.0362
    -9.5517  -9.4825  -9.3709  -9.3231  -9.2200  -9.1767  -9.1593  -9.1016
    -9.0404  -9.0229  -8.9383  -8.9069  -8.8580  -8.8193  -8.8035  -8.7256
    -8.7148  -8.6777  -8.6445  -8.6328  -8.5986  -8.5795  -8.5319  -8.4968
    -5.2964  -5.2744  -5.2733  -5.2178  -5.2073  -5.1959  -5.1690  -5.1668
    -5.1580  -5.1558  -5.1494  -5.1465  -5.1371  -5.1342  -5.1206  -5.1107
    -5.1092  -5.1028  -5.0713  -5.0539  -5.0481  -5.0472  -5.0417  -5.0403
    -4.1098  -3.9198  -3.8600  -3.7871  -3.6466  -3.5470  -3.5190  -3.2860
    -0.5318  -0.4412  -0.3896  -0.3085  -0.2279  -0.2053  -0.1230  -0.0815
    -0.0070   0.0157   0.1047   0.1694   0.2721   0.3036   0.3401   0.4000
     0.4518   0.4891   0.5042   0.5483   0.5971   0.6263   0.6461   0.7368
     0.7883   0.8295   0.8516   0.9083   0.9523   0.9793   1.0129   1.0353
     1.0871   1.1131   1.1490   1.1945   1.2143   1.2297   1.2721   1.3108
     1.3597   1.4108   1.4470   1.4728   1.5010   1.5517   1.5790   1.6051
     1.6201   1.6764   1.7020   1.7311   1.7439   1.7846   1.8154   1.8351
     1.8568   1.8913   1.9056   1.9169   1.9476   1.9653   1.9812   2.0046
     2.0098   2.0547   2.0937   2.1359   2.1719   2.1996   2.2493   2.3731

          k =-0.1250-0.1250 0.1250 (132670 PWs)   bands (ev):

   -18.5158 -18.4346 -18.3918 -18.3817 -18.3462 -18.3391 -18.3355 -18.3328
   -18.3297 -18.3214 -18.3199 -18.3133 -18.3131 -18.3035 -18.3019 -18.2922
   -18.2834 -18.2797 -18.2721 -18.2714 -18.2664 -18.2611 -18.2598 -18.2574
   -18.2529 -18.2457 -18.2352 -18.2348 -18.1928 -18.1832 -18.1808 -18.1777
   -18.1752 -18.1715 -18.1690 -18.1638 -18.1599 -18.1584 -18.0856 -18.0771
   -18.0729 -18.0693 -18.0581 -18.0578 -18.0535 -18.0488 -18.0422 -18.0362
    -9.5768  -9.4750  -9.3726  -9.2733  -9.2269  -9.1869  -9.1670  -9.1032
    -9.0240  -9.0171  -8.9299  -8.8998  -8.8643  -8.8377  -8.7883  -8.7531
    -8.7203  -8.7004  -8.6559  -8.6371  -8.5925  -8.5704  -8.5220  -8.4829
    -5.2965  -5.2747  -5.2731  -5.2179  -5.2076  -5.1957  -5.1689  -5.1670
    -5.1577  -5.1564  -5.1510  -5.1448  -5.1361  -5.1350  -5.1183  -5.1128
    -5.1101  -5.1029  -5.0713  -5.0538  -5.0482  -5.0470  -5.0416  -5.0403
    -4.4423  -3.9754  -3.9376  -3.8411  -3.4399  -3.3339  -3.3041  -2.7442
    -0.8163  -0.7404  -0.7185  -0.6098  -0.5879  -0.5302  -0.4861  -0.4503
    -0.3910  -0.3262  -0.2628  -0.1116   0.3212   0.4125   0.4628   0.5509
     0.5937   0.6393   0.6964   0.7242   0.7892   0.8535   0.9025   0.9286
     0.9511   1.0051   1.0285   1.0671   1.0891   1.1019   1.1253   1.1710
     1.2088   1.2343   1.2490   1.2714   1.2860   1.3105   1.3336   1.3642
     1.3860   1.4151   1.4303   1.4668   1.4897   1.5370   1.5538   1.5701
     1.5945   1.6072   1.6469   1.6730   1.7084   1.7340   1.7598   1.7779
     1.8029   1.8501   1.8636   1.9264   1.9865   2.0412   2.0678   2.1009
     2.1781   2.1928   2.2703   2.3392   2.6049   2.7489   2.7810   3.1939

          k =-0.1250 0.1250-0.1250 (132670 PWs)   bands (ev):

   -18.5158 -18.4346 -18.3918 -18.3817 -18.3462 -18.3391 -18.3355 -18.3328
   -18.3297 -18.3214 -18.3199 -18.3133 -18.3131 -18.3035 -18.3019 -18.2922
   -18.2834 -18.2797 -18.2721 -18.2714 -18.2664 -18.2611 -18.2598 -18.2574
   -18.2529 -18.2457 -18.2352 -18.2348 -18.1928 -18.1832 -18.1808 -18.1777
   -18.1752 -18.1715 -18.1690 -18.1638 -18.1599 -18.1584 -18.0856 -18.0771
   -18.0729 -18.0693 -18.0581 -18.0578 -18.0535 -18.0488 -18.0422 -18.0362
    -9.5771  -9.4751  -9.3706  -9.2724  -9.2332  -9.1851  -9.1661  -9.1021
    -9.0260  -9.0156  -8.9289  -8.8986  -8.8651  -8.8383  -8.7898  -8.7513
    -8.7198  -8.6999  -8.6566  -8.6388  -8.5916  -8.5715  -8.5207  -8.4832
    -5.2965  -5.2746  -5.2731  -5.2179  -5.2077  -5.1957  -5.1685  -5.1671
    -5.1582  -5.1561  -5.1512  -5.1442  -5.1369  -5.1343  -5.1189  -5.1129
    -5.1103  -5.1023  -5.0712  -5.0539  -5.0483  -5.0471  -5.0416  -5.0402
    -4.4433  -3.9774  -3.9159  -3.8632  -3.4237  -3.3365  -3.3155  -2.7435
    -0.8167  -0.7493  -0.7017  -0.6258  -0.5795  -0.5208  -0.4735  -0.4397
    -0.3861  -0.3669  -0.2571  -0.1201   0.3194   0.4127   0.4599   0.5556
     0.5890   0.6489   0.6964   0.7250   0.7866   0.8323   0.9228   0.9313
     0.9736   0.9995   1.0302   1.0559   1.0966   1.1022   1.1218   1.1574
     1.1964   1.2229   1.2426   1.2740   1.2981   1.3229   1.3590   1.3760
     1.3888   1.4031   1.4399   1.4745   1.4915   1.5275   1.5523   1.5630
     1.5887   1.6179   1.6477   1.6615   1.7085   1.7229   1.7430   1.7694
     1.7933   1.8409   1.8815   1.9190   1.9857   2.0519   2.0653   2.1162
     2.1752   2.2107   2.2844   2.3164   2.6147   2.7510   2.7862   3.1597

          k = 0.1250-0.1250-0.1250 (132670 PWs)   bands (ev):

   -18.5158 -18.4346 -18.3918 -18.3817 -18.3462 -18.3391 -18.3355 -18.3328
   -18.3297 -18.3214 -18.3199 -18.3133 -18.3131 -18.3035 -18.3019 -18.2922
   -18.2834 -18.2797 -18.2721 -18.2714 -18.2664 -18.2611 -18.2598 -18.2574
   -18.2529 -18.2457 -18.2352 -18.2348 -18.1928 -18.1832 -18.1808 -18.1777
   -18.1752 -18.1715 -18.1690 -18.1638 -18.1599 -18.1584 -18.0856 -18.0771
   -18.0729 -18.0693 -18.0581 -18.0578 -18.0535 -18.0488 -18.0422 -18.0362
    -9.5769  -9.4750  -9.3726  -9.2731  -9.2279  -9.1832  -9.1693  -9.1046
    -9.0256  -9.0153  -8.9304  -8.8978  -8.8552  -8.8475  -8.7895  -8.7531
    -8.7207  -8.6983  -8.6547  -8.6384  -8.5934  -8.5703  -8.5213  -8.4833
    -5.2965  -5.2747  -5.2731  -5.2178  -5.2078  -5.1957  -5.1685  -5.1671
    -5.1586  -5.1555  -5.1512  -5.1443  -5.1371  -5.1341  -5.1188  -5.1129
    -5.1103  -5.1024  -5.0715  -5.0538  -5.0481  -5.0473  -5.0416  -5.0402
    -4.4429  -3.9769  -3.9291  -3.8484  -3.4363  -3.3338  -3.3067  -2.7451
    -0.8141  -0.7579  -0.6838  -0.6223  -0.5886  -0.5264  -0.4804  -0.4489
    -0.3810  -0.3463  -0.2728  -0.1133   0.3173   0.4143   0.4607   0.5563
     0.5889   0.6399   0.7026   0.7184   0.7913   0.8381   0.9093   0.9446
     0.9705   0.9942   1.0323   1.0430   1.0937   1.1199   1.1389   1.1658
     1.1948   1.2212   1.2398   1.2637   1.2980   1.3064   1.3415   1.3640
     1.4067   1.4173   1.4401   1.4644   1.4912   1.5184   1.5555   1.5685
     1.5867   1.6203   1.6582   1.6675   1.7033   1.7417   1.7566   1.7764
     1.7988   1.8339   1.8749   1.9167   1.9750   2.0304   2.0760   2.1095
     2.1791   2.2051   2.2886   2.3252   2.6140   2.7419   2.7828   3.1615

          k =-0.1250-0.1250 0.3750 (132608 PWs)   bands (ev):

   -18.5158 -18.4346 -18.3918 -18.3817 -18.3462 -18.3391 -18.3355 -18.3328
   -18.3297 -18.3214 -18.3199 -18.3133 -18.3131 -18.3035 -18.3019 -18.2922
   -18.2834 -18.2797 -18.2721 -18.2714 -18.2664 -18.2611 -18.2598 -18.2574
   -18.2529 -18.2457 -18.2352 -18.2348 -18.1928 -18.1832 -18.1808 -18.1777
   -18.1752 -18.1715 -18.1690 -18.1638 -18.1599 -18.1584 -18.0856 -18.0771
   -18.0729 -18.0693 -18.0580 -18.0578 -18.0535 -18.0488 -18.0422 -18.0362
    -9.5738  -9.4731  -9.3703  -9.2746  -9.2235  -9.1892  -9.1788  -9.1113
    -9.0304  -9.0143  -8.9454  -8.8966  -8.8500  -8.8193  -8.7885  -8.7479
    -8.7230  -8.6925  -8.6564  -8.6318  -8.6028  -8.5748  -8.5257  -8.4836
    -5.2964  -5.2745  -5.2730  -5.2177  -5.2073  -5.1957  -5.1689  -5.1669
    -5.1582  -5.1568  -5.1514  -5.1442  -5.1364  -5.1356  -5.1185  -5.1106
    -5.1100  -5.1030  -5.0715  -5.0538  -5.0483  -5.0468  -5.0420  -5.0408
    -4.3362  -4.0469  -3.8686  -3.7852  -3.5168  -3.4958  -3.2729  -2.9374
    -0.7994  -0.7267  -0.6930  -0.5449  -0.5121  -0.4178  -0.3378  -0.2224
    -0.1863  -0.0713  -0.0387   0.0192   0.3266   0.3962   0.4629   0.4854
     0.5326   0.5451   0.6016   0.6413   0.6601   0.6946   0.7465   0.8130
     0.8858   0.8927   0.9426   1.0005   1.0447   1.0722   1.1068   1.1506
     1.1799   1.1975   1.2177   1.2581   1.2949   1.3238   1.3549   1.3883
     1.4013   1.4122   1.4341   1.4654   1.4824   1.5169   1.5414   1.5628
     1.5839   1.6490   1.6695   1.7079   1.7381   1.7712   1.7825   1.8003
     1.8472   1.8610   1.8746   1.8885   1.9254   1.9756   1.9991   2.0323
     2.1116   2.1966   2.2144   2.2937   2.4415   2.5604   2.6579   2.9547

          k =-0.1250 0.1250-0.3750 (132608 PWs)   bands (ev):

   -18.5158 -18.4346 -18.3918 -18.3817 -18.3462 -18.3391 -18.3355 -18.3328
   -18.3297 -18.3214 -18.3199 -18.3133 -18.3131 -18.3035 -18.3019 -18.2922
   -18.2834 -18.2797 -18.2721 -18.2714 -18.2664 -18.2611 -18.2598 -18.2574
   -18.2529 -18.2457 -18.2352 -18.2348 -18.1928 -18.1832 -18.1808 -18.1777
   -18.1752 -18.1715 -18.1690 -18.1638 -18.1599 -18.1584 -18.0856 -18.0771
   -18.0729 -18.0693 -18.0581 -18.0578 -18.0535 -18.0488 -18.0422 -18.0362
    -9.5741  -9.4731  -9.3679  -9.2736  -9.2320  -9.1867  -9.1763  -9.1103
    -9.0314  -9.0149  -8.9425  -8.8970  -8.8514  -8.8200  -8.7892  -8.7465
    -8.7210  -8.6913  -8.6597  -8.6332  -8.6010  -8.5761  -8.5244  -8.4838
    -5.2964  -5.2744  -5.2730  -5.2177  -5.2074  -5.1957  -5.1685  -5.1670
    -5.1587  -5.1564  -5.1515  -5.1438  -5.1366  -5.1354  -5.1190  -5.1106
    -5.1102  -5.1025  -5.0714  -5.0539  -5.0484  -5.0469  -5.0420  -5.0408
    -4.3387  -4.0384  -3.8668  -3.8003  -3.5021  -3.4927  -3.2866  -2.9348
    -0.7946  -0.7390  -0.6756  -0.5581  -0.5021  -0.4163  -0.3392  -0.2395
    -0.1597  -0.0731  -0.0497   0.0108   0.3231   0.3911   0.4602   0.4828
     0.5104   0.5656   0.6182   0.6299   0.6756   0.7044   0.7386   0.8281
     0.8591   0.8993   0.9481   1.0063   1.0375   1.0663   1.1143   1.1493
     1.1706   1.2034   1.2297   1.2534   1.2741   1.3347   1.3552   1.3789
     1.4097   1.4321   1.4522   1.4664   1.4853   1.5135   1.5347   1.5629
     1.5957   1.6397   1.6600   1.7043   1.7362   1.7702   1.7809   1.7961
     1.8240   1.8403   1.8669   1.8955   1.9228   1.9902   2.0031   2.0364
     2.1297   2.1838   2.2350   2.2784   2.4603   2.5703   2.6623   2.9190

          k = 0.1250-0.1250-0.3750 (132608 PWs)   bands (ev):

   -18.5158 -18.4346 -18.3918 -18.3817 -18.3462 -18.3391 -18.3355 -18.3328
   -18.3297 -18.3214 -18.3199 -18.3133 -18.3131 -18.3035 -18.3019 -18.2922
   -18.2834 -18.2797 -18.2721 -18.2714 -18.2664 -18.2611 -18.2598 -18.2574
   -18.2529 -18.2457 -18.2352 -18.2348 -18.1928 -18.1832 -18.1808 -18.1777
   -18.1752 -18.1715 -18.1690 -18.1638 -18.1599 -18.1584 -18.0856 -18.0771
   -18.0729 -18.0693 -18.0581 -18.0578 -18.0535 -18.0488 -18.0422 -18.0362
    -9.5739  -9.4730  -9.3703  -9.2741  -9.2248  -9.1870  -9.1795  -9.1126
    -9.0305  -9.0143  -8.9434  -8.8984  -8.8427  -8.8270  -8.7885  -8.7489
    -8.7215  -8.6902  -8.6577  -8.6323  -8.6032  -8.5747  -8.5251  -8.4839
    -5.2964  -5.2744  -5.2730  -5.2177  -5.2075  -5.1957  -5.1686  -5.1670
    -5.1590  -5.1559  -5.1515  -5.1439  -5.1369  -5.1352  -5.1189  -5.1107
    -5.1102  -5.1026  -5.0716  -5.0538  -5.0482  -5.0471  -5.0420  -5.0407
    -4.3375  -4.0441  -3.8656  -3.7921  -3.5087  -3.4990  -3.2755  -2.9381
    -0.7941  -0.7470  -0.6672  -0.5456  -0.5092  -0.4244  -0.3316  -0.2326
    -0.1812  -0.0740  -0.0488   0.0232   0.3196   0.3953   0.4502   0.4617
     0.5351   0.5645   0.6108   0.6416   0.6783   0.7076   0.7406   0.8162
     0.8478   0.9057   0.9373   1.0056   1.0501   1.0767   1.1210   1.1381
     1.1758   1.2029   1.2290   1.2668   1.2776   1.3225   1.3540   1.3888
     1.3963   1.4195   1.4457   1.4632   1.4985   1.5104   1.5282   1.5660
     1.6050   1.6228   1.6775   1.7021   1.7414   1.7705   1.7867   1.8106
     1.8240   1.8564   1.8653   1.8984   1.9220   1.9733   1.9924   2.0281
     2.1031   2.2028   2.2458   2.2901   2.4377   2.5657   2.6691   2.9197

          k = 0.3750-0.1250 0.1250 (132608 PWs)   bands (ev):

   -18.5158 -18.4346 -18.3918 -18.3817 -18.3462 -18.3391 -18.3355 -18.3328
   -18.3297 -18.3214 -18.3199 -18.3133 -18.3131 -18.3035 -18.3019 -18.2922
   -18.2834 -18.2797 -18.2721 -18.2714 -18.2664 -18.2611 -18.2598 -18.2574
   -18.2529 -18.2457 -18.2352 -18.2348 -18.1928 -18.1832 -18.1808 -18.1777
   -18.1752 -18.1715 -18.1690 -18.1638 -18.1599 -18.1584 -18.0856 -18.0771
   -18.0729 -18.0693 -18.0581 -18.0578 -18.0535 -18.0488 -18.0422 -18.0362
    -9.5668  -9.4666  -9.4003  -9.2898  -9.2177  -9.1731  -9.1604  -9.0981
    -9.0420  -9.0143  -8.9276  -8.9004  -8.8617  -8.8399  -8.8017  -8.7512
    -8.7129  -8.6982  -8.6409  -8.6272  -8.5983  -8.5693  -8.5267  -8.4922
    -5.2963  -5.2746  -5.2730  -5.2179  -5.2074  -5.1954  -5.1681  -5.1668
    -5.1586  -5.1560  -5.1505  -5.1454  -5.1372  -5.1330  -5.1208  -5.1130
    -5.1095  -5.1028  -5.0716  -5.0537  -5.0486  -5.0471  -5.0415  -5.0404
    -4.3190  -4.1029  -3.8358  -3.7375  -3.6021  -3.5034  -3.1929  -2.9557
    -0.7566  -0.7044  -0.6117  -0.5649  -0.5363  -0.4464  -0.4064  -0.3558
    -0.2594  -0.1771   0.0938   0.1629   0.2689   0.3792   0.4445   0.4890
     0.5326   0.5699   0.6105   0.6550   0.7070   0.7313   0.7575   0.8478
     0.9005   0.9128   0.9569   0.9995   1.0195   1.0659   1.0922   1.0991
     1.1593   1.1932   1.2299   1.2517   1.2840   1.3094   1.3526   1.3662
     1.4096   1.4340   1.4591   1.4924   1.5155   1.5259   1.5453   1.5758
     1.6007   1.6449   1.6602   1.6933   1.7023   1.7441   1.7640   1.8050
     1.8313   1.8575   1.8748   1.9074   1.9376   1.9775   2.0300   2.0951
     2.1117   2.1416   2.2355   2.2969   2.3833   2.4870   2.7651   2.8765

          k =-0.3750-0.1250-0.1250 (132608 PWs)   bands (ev):

   -18.5158 -18.4346 -18.3918 -18.3817 -18.3462 -18.3391 -18.3355 -18.3328
   -18.3297 -18.3214 -18.3199 -18.3133 -18.3131 -18.3035 -18.3019 -18.2922
   -18.2834 -18.2797 -18.2721 -18.2714 -18.2664 -18.2611 -18.2598 -18.2574
   -18.2529 -18.2457 -18.2352 -18.2348 -18.1928 -18.1832 -18.1808 -18.1777
   -18.1752 -18.1715 -18.1690 -18.1638 -18.1599 -18.1584 -18.0856 -18.0771
   -18.0729 -18.0693 -18.0581 -18.0578 -18.0535 -18.0488 -18.0422 -18.0362
    -9.5667  -9.4667  -9.4004  -9.2894  -9.2170  -9.1751  -9.1590  -9.0978
    -9.0426  -9.0149  -8.9308  -8.8984  -8.8534  -8.8460  -8.8002  -8.7544
    -8.7130  -8.6952  -8.6438  -8.6272  -8.5970  -8.5686  -8.5282  -8.4916
    -5.2963  -5.2746  -5.2730  -5.2177  -5.2075  -5.1955  -5.1685  -5.1666
    -5.1580  -5.1563  -5.1503  -5.1459  -5.1368  -5.1333  -5.1202  -5.1129
    -5.1093  -5.1034  -5.0717  -5.0536  -5.0486  -5.0473  -5.0415  -5.0403
    -4.3194  -4.1035  -3.8331  -3.7382  -3.5975  -3.5100  -3.1942  -2.9532
    -0.7426  -0.7181  -0.6158  -0.5755  -0.5351  -0.4426  -0.4013  -0.3507
    -0.2567  -0.1778   0.0897   0.1760   0.2724   0.3628   0.4339   0.5108
     0.5351   0.5700   0.6063   0.6641   0.6856   0.7314   0.7461   0.8544
     0.8867   0.9232   0.9681   0.9942   1.0161   1.0389   1.0932   1.1277
     1.1675   1.1856   1.2187   1.2368   1.2933   1.3039   1.3628   1.3904
     1.4023   1.4356   1.4631   1.4915   1.5152   1.5312   1.5631   1.5850
     1.5973   1.6248   1.6497   1.6822   1.7127   1.7499   1.7756   1.7911
     1.8356   1.8551   1.8863   1.9068   1.9510   1.9803   2.0202   2.0753
     2.1068   2.1332   2.2543   2.2931   2.3874   2.4829   2.7418   2.8890

          k = 0.3750 0.1250-0.1250 (132608 PWs)   bands (ev):

   -18.5158 -18.4346 -18.3918 -18.3817 -18.3462 -18.3391 -18.3355 -18.3328
   -18.3297 -18.3214 -18.3199 -18.3133 -18.3131 -18.3035 -18.3019 -18.2922
   -18.2834 -18.2797 -18.2721 -18.2714 -18.2664 -18.2611 -18.2598 -18.2574
   -18.2529 -18.2457 -18.2352 -18.2348 -18.1928 -18.1832 -18.1808 -18.1777
   -18.1752 -18.1715 -18.1690 -18.1638 -18.1599 -18.1584 -18.0856 -18.0771
   -18.0729 -18.0693 -18.0580 -18.0578 -18.0535 -18.0488 -18.0422 -18.0362
    -9.5664  -9.4666  -9.4018  -9.2909  -9.2115  -9.1742  -9.1620  -9.1004
    -9.0403  -9.0145  -8.9286  -8.9013  -8.8617  -8.8391  -8.8001  -8.7527
    -8.7146  -8.6973  -8.6412  -8.6239  -8.6000  -8.5682  -8.5284  -8.4919
    -5.2963  -5.2747  -5.2730  -5.2179  -5.2073  -5.1955  -5.1685  -5.1667
    -5.1581  -5.1562  -5.1501  -5.1460  -5.1366  -5.1335  -5.1203  -5.1129
    -5.1092  -5.1034  -5.0717  -5.0537  -5.0486  -5.0470  -5.0414  -5.0404
    -4.3156  -4.1105  -3.8365  -3.7215  -3.6111  -3.5114  -3.1829  -2.9594
    -0.7502  -0.7149  -0.6042  -0.5760  -0.5209  -0.4654  -0.4266  -0.3511
    -0.2328  -0.1736   0.0870   0.1790   0.2769   0.3685   0.4310   0.5117
     0.5356   0.5680   0.6194   0.6515   0.6813   0.7184   0.7592   0.8593
     0.8841   0.9186   0.9728   0.9840   1.0289   1.0461   1.1007   1.1160
     1.1516   1.1807   1.2304   1.2743   1.2868   1.3190   1.3438   1.3736
     1.3892   1.4113   1.4619   1.4767   1.5015   1.5365   1.5621   1.5816
     1.5973   1.6494   1.6612   1.6896   1.7125   1.7488   1.7764   1.8050
     1.8279   1.8537   1.8969   1.9220   1.9521   1.9695   2.0264   2.0698
     2.0994   2.1179   2.2436   2.3071   2.3881   2.4720   2.7510   2.9098

          k =-0.3750 0.1250 0.1250 (132608 PWs)   bands (ev):

   -18.5158 -18.4346 -18.3918 -18.3817 -18.3462 -18.3391 -18.3355 -18.3328
   -18.3297 -18.3214 -18.3199 -18.3133 -18.3131 -18.3035 -18.3019 -18.2922
   -18.2834 -18.2797 -18.2721 -18.2714 -18.2664 -18.2611 -18.2598 -18.2574
   -18.2529 -18.2457 -18.2352 -18.2348 -18.1928 -18.1832 -18.1808 -18.1777
   -18.1752 -18.1715 -18.1690 -18.1638 -18.1599 -18.1584 -18.0856 -18.0771
   -18.0729 -18.0693 -18.0580 -18.0578 -18.0535 -18.0488 -18.0422 -18.0362
    -9.5665  -9.4665  -9.4018  -9.2904  -9.2123  -9.1729  -9.1623  -9.1021
    -9.0403  -9.0137  -8.9298  -8.8983  -8.8542  -8.8489  -8.7995  -8.7535
    -8.7125  -8.6985  -8.6396  -8.6249  -8.6009  -8.5684  -8.5272  -8.4923
    -5.2962  -5.2747  -5.2730  -5.2178  -5.2075  -5.1954  -5.1681  -5.1668
    -5.1587  -5.1557  -5.1503  -5.1455  -5.1374  -5.1326  -5.1208  -5.1130
    -5.1095  -5.1028  -5.0719  -5.0537  -5.0484  -5.0473  -5.0414  -5.0403
    -4.3163  -4.1112  -3.8294  -3.7273  -3.6086  -3.5144  -3.1810  -2.9613
    -0.7543  -0.7036  -0.6024  -0.5794  -0.5162  -0.4689  -0.4105  -0.3644
    -0.2413  -0.1744   0.0908   0.1625   0.2732   0.3784   0.4389   0.5006
     0.5262   0.5677   0.6099   0.6579   0.6936   0.7262   0.7671   0.8559
     0.8765   0.9180   0.9777   1.0033   1.0247   1.0454   1.0852   1.1240
     1.1489   1.1895   1.2189   1.2386   1.2982   1.3295   1.3467   1.3810
     1.4089   1.4383   1.4434   1.4813   1.5137   1.5382   1.5555   1.5692
     1.5855   1.6157   1.6610   1.6981   1.7204   1.7634   1.7861   1.8101
     1.8335   1.8466   1.8708   1.9078   1.9373   1.9862   2.0117   2.0828
     2.1147   2.1297   2.2358   2.3203   2.3905   2.4716   2.7480   2.8829

          k =-0.1250 0.3750 0.1250 (132608 PWs)   bands (ev):

   -18.5158 -18.4346 -18.3918 -18.3817 -18.3462 -18.3391 -18.3355 -18.3328
   -18.3297 -18.3214 -18.3199 -18.3133 -18.3131 -18.3035 -18.3019 -18.2922
   -18.2834 -18.2797 -18.2721 -18.2714 -18.2665 -18.2611 -18.2598 -18.2574
   -18.2529 -18.2457 -18.2352 -18.2348 -18.1928 -18.1832 -18.1808 -18.1777
   -18.1752 -18.1716 -18.1690 -18.1638 -18.1599 -18.1584 -18.0856 -18.0771
   -18.0729 -18.0693 -18.0580 -18.0578 -18.0535 -18.0488 -18.0422 -18.0362
    -9.5611  -9.4955  -9.3535  -9.3007  -9.2254  -9.1874  -9.1612  -9.0962
    -9.0287  -9.0162  -8.9261  -8.9022  -8.8716  -8.8439  -8.7980  -8.7312
    -8.7214  -8.6818  -8.6577  -8.6371  -8.5916  -8.5741  -8.5246  -8.4903
    -5.2964  -5.2744  -5.2732  -5.2177  -5.2075  -5.1958  -5.1685  -5.1668
    -5.1586  -5.1546  -5.1500  -5.1459  -5.1378  -5.1332  -5.1195  -5.1127
    -5.1101  -5.1024  -5.0715  -5.0546  -5.0483  -5.0476  -5.0415  -5.0400
    -4.3220  -4.1146  -3.8328  -3.7318  -3.5987  -3.4867  -3.2140  -2.9370
    -0.7818  -0.7275  -0.6279  -0.5946  -0.5283  -0.4588  -0.3560  -0.3405
    -0.1991  -0.1473   0.0527   0.1139   0.2383   0.3942   0.4471   0.5002
     0.5338   0.5823   0.5942   0.6266   0.6755   0.7048   0.7623   0.8338
     0.8811   0.9024   0.9527   1.0065   1.0408   1.0832   1.1003   1.1360
     1.1956   1.2023   1.2394   1.2748   1.2856   1.3278   1.3501   1.3680
     1.4152   1.4232   1.4562   1.4710   1.5030   1.5265   1.5550   1.5754
     1.5928   1.6172   1.6849   1.6937   1.7160   1.7454   1.7593   1.8053
     1.8106   1.8675   1.8809   1.9138   1.9253   1.9853   2.0229   2.0838
     2.1096   2.1430   2.2513   2.3248   2.4128   2.4745   2.8009   2.9275

          k =-0.1250-0.3750-0.1250 (132608 PWs)   bands (ev):

   -18.5158 -18.4346 -18.3918 -18.3817 -18.3462 -18.3391 -18.3355 -18.3328
   -18.3297 -18.3214 -18.3199 -18.3133 -18.3131 -18.3035 -18.3019 -18.2922
   -18.2834 -18.2797 -18.2721 -18.2714 -18.2665 -18.2611 -18.2598 -18.2574
   -18.2529 -18.2457 -18.2352 -18.2348 -18.1928 -18.1832 -18.1808 -18.1777
   -18.1752 -18.1716 -18.1690 -18.1638 -18.1599 -18.1584 -18.0856 -18.0771
   -18.0729 -18.0693 -18.0580 -18.0578 -18.0535 -18.0488 -18.0422 -18.0362
    -9.5613  -9.4958  -9.3513  -9.2995  -9.2294  -9.1913  -9.1578  -9.0940
    -9.0296  -9.0163  -8.9287  -8.8997  -8.8694  -8.8445  -8.7979  -8.7324
    -8.7232  -8.6738  -8.6636  -8.6389  -8.5891  -8.5747  -8.5256  -8.4896
    -5.2965  -5.2744  -5.2732  -5.2177  -5.2075  -5.1959  -5.1688  -5.1667
    -5.1583  -5.1547  -5.1497  -5.1465  -5.1371  -5.1339  -5.1189  -5.1127
    -5.1099  -5.1029  -5.0713  -5.0545  -5.0484  -5.0476  -5.0415  -5.0400
    -4.3230  -4.1161  -3.8139  -3.7507  -3.5828  -3.5038  -3.2131  -2.9337
    -0.7947  -0.7164  -0.6266  -0.5862  -0.5392  -0.4615  -0.3670  -0.3242
    -0.2056  -0.1460   0.0728   0.1113   0.2485   0.3806   0.4316   0.5024
     0.5421   0.5826   0.5970   0.6164   0.6665   0.7073   0.7419   0.8617
     0.8929   0.9137   0.9450   0.9923   1.0213   1.0613   1.1096   1.1493
     1.1619   1.2206   1.2396   1.2779   1.3123   1.3466   1.3690   1.3854
     1.4104   1.4193   1.4479   1.4730   1.4939   1.5147   1.5517   1.5763
     1.5936   1.6258   1.6655   1.6939   1.7051   1.7438   1.7641   1.7965
     1.8142   1.8650   1.8884   1.9192   1.9363   1.9900   2.0113   2.0644
     2.1129   2.1489   2.2952   2.3009   2.4231   2.4433   2.7961   2.9404

          k = 0.1250 0.3750-0.1250 (132608 PWs)   bands (ev):

   -18.5158 -18.4346 -18.3918 -18.3817 -18.3462 -18.3391 -18.3355 -18.3328
   -18.3297 -18.3214 -18.3199 -18.3133 -18.3131 -18.3035 -18.3019 -18.2922
   -18.2834 -18.2797 -18.2721 -18.2714 -18.2665 -18.2611 -18.2598 -18.2574
   -18.2529 -18.2457 -18.2352 -18.2348 -18.1928 -18.1832 -18.1808 -18.1777
   -18.1752 -18.1716 -18.1690 -18.1638 -18.1599 -18.1584 -18.0856 -18.0771
   -18.0729 -18.0693 -18.0580 -18.0578 -18.0535 -18.0488 -18.0422 -18.0362
    -9.5610  -9.4956  -9.3535  -9.3008  -9.2244  -9.1903  -9.1598  -9.0947
    -9.0268  -9.0186  -8.9235  -8.9059  -8.8768  -8.8378  -8.7972  -8.7307
    -8.7226  -8.6810  -8.6610  -8.6353  -8.5900  -8.5747  -8.5257  -8.4898
    -5.2965  -5.2744  -5.2732  -5.2178  -5.2073  -5.1958  -5.1688  -5.1667
    -5.1581  -5.1551  -5.1498  -5.1465  -5.1373  -5.1337  -5.1190  -5.1127
    -5.1098  -5.1029  -5.0714  -5.0546  -5.0485  -5.0473  -5.0415  -5.0401
    -4.3202  -4.1179  -3.8330  -3.7277  -3.6001  -3.4891  -3.2127  -2.9361
    -0.7897  -0.7117  -0.6483  -0.5928  -0.5164  -0.4632  -0.3816  -0.3187
    -0.2124  -0.1418   0.0758   0.1168   0.2530   0.3885   0.4391   0.4930
     0.5446   0.5770   0.6009   0.6331   0.6718   0.6943   0.7452   0.8535
     0.8790   0.9044   0.9329   0.9885   1.0546   1.0766   1.1111   1.1263
     1.1871   1.2125   1.2534   1.2785   1.3005   1.3276   1.3424   1.3652
     1.4052   1.4186   1.4562   1.4676   1.4925   1.5258   1.5589   1.5851
     1.5994   1.6199   1.6742   1.6942   1.7222   1.7391   1.7631   1.7985
     1.8139   1.8538   1.8943   1.9179   1.9480   1.9908   2.0097   2.0694
     2.1110   2.1353   2.2475   2.3416   2.4136   2.4664   2.7927   2.9507

          k = 0.1250-0.3750 0.1250 (132608 PWs)   bands (ev):

   -18.5158 -18.4346 -18.3918 -18.3817 -18.3462 -18.3391 -18.3355 -18.3328
   -18.3297 -18.3214 -18.3199 -18.3133 -18.3131 -18.3035 -18.3019 -18.2922
   -18.2834 -18.2797 -18.2721 -18.2714 -18.2665 -18.2611 -18.2598 -18.2574
   -18.2529 -18.2457 -18.2352 -18.2348 -18.1928 -18.1832 -18.1808 -18.1777
   -18.1752 -18.1716 -18.1690 -18.1638 -18.1599 -18.1584 -18.0856 -18.0771
   -18.0729 -18.0693 -18.0580 -18.0578 -18.0535 -18.0488 -18.0422 -18.0362
    -9.5614  -9.4957  -9.3512  -9.2994  -9.2310  -9.1900  -9.1584  -9.0943
    -9.0275  -9.0169  -8.9243  -8.9017  -8.8772  -8.8402  -8.7989  -8.7299
    -8.7212  -8.6842  -8.6562  -8.6382  -8.5898  -8.5757  -8.5242  -8.4901
    -5.2965  -5.2744  -5.2732  -5.2178  -5.2074  -5.1958  -5.1684  -5.1668
    -5.1586  -5.1548  -5.1500  -5.1459  -5.1375  -5.1335  -5.1195  -5.1128
    -5.1100  -5.1023  -5.0713  -5.0546  -5.0485  -5.0475  -5.0415  -5.0401
    -4.3215  -4.1192  -3.8104  -3.7511  -3.5850  -3.5044  -3.2091  -2.9366
    -0.7902  -0.7136  -0.6452  -0.5836  -0.5210  -0.4744  -0.3526  -0.3298
    -0.2014  -0.1488   0.0464   0.1144   0.2444   0.3886   0.4501   0.4935
     0.5464   0.5736   0.5982   0.6330   0.6785   0.7169   0.7403   0.8376
     0.8873   0.9155   0.9522   0.9955   1.0278   1.0623   1.0889   1.1424
     1.1702   1.2204   1.2366   1.2837   1.3194   1.3464   1.3628   1.3905
     1.4079   1.4227   1.4557   1.4669   1.4833   1.5228   1.5463   1.5768
     1.6007   1.6105   1.6603   1.6807   1.7121   1.7344   1.7595   1.8122
     1.8200   1.8557   1.8858   1.9076   1.9384   1.9911   2.0226   2.0784
     2.1154   2.1520   2.2740   2.3007   2.4431   2.4498   2.8047   2.9271

          k =-0.1250-0.3750 0.3750 (132616 PWs)   bands (ev):

   -18.5158 -18.4346 -18.3918 -18.3817 -18.3462 -18.3391 -18.3355 -18.3328
   -18.3297 -18.3214 -18.3199 -18.3133 -18.3131 -18.3035 -18.3019 -18.2922
   -18.2834 -18.2797 -18.2721 -18.2714 -18.2665 -18.2611 -18.2598 -18.2574
   -18.2529 -18.2457 -18.2352 -18.2348 -18.1928 -18.1832 -18.1808 -18.1777
   -18.1752 -18.1716 -18.1690 -18.1638 -18.1599 -18.1584 -18.0856 -18.0771
   -18.0729 -18.0693 -18.0580 -18.0578 -18.0535 -18.0488 -18.0422 -18.0362
    -9.5584  -9.4933  -9.3518  -9.3011  -9.2204  -9.1873  -9.1760  -9.1034
    -9.0305  -9.0234  -8.9343  -8.9105  -8.8611  -8.8151  -8.7900  -8.7278
    -8.7238  -8.6850  -8.6575  -8.6319  -8.5970  -8.5785  -8.5283  -8.4910
    -5.2964  -5.2743  -5.2733  -5.2178  -5.2073  -5.1959  -5.1687  -5.1664
    -5.1586  -5.1552  -5.1504  -5.1457  -5.1374  -5.1348  -5.1191  -5.1106
    -5.1095  -5.1034  -5.0713  -5.0544  -5.0484  -5.0468  -5.0418  -5.0406
    -4.2147  -4.0324  -3.9162  -3.6963  -3.6505  -3.4808  -3.3626  -3.1128
    -0.7716  -0.7062  -0.4425  -0.4141  -0.3574  -0.2641  -0.2207  -0.1762
    -0.1117  -0.0270   0.1191   0.1578   0.2738   0.3789   0.4084   0.4487
     0.4695   0.5132   0.5483   0.5741   0.6217   0.6288   0.6853   0.7546
     0.8147   0.8673   0.8959   0.9705   0.9844   1.0200   1.0478   1.0883
     1.1264   1.1301   1.1740   1.2210   1.2561   1.2773   1.3234   1.3655
     1.3813   1.4069   1.4321   1.4569   1.4853   1.5367   1.5649   1.5854
     1.6400   1.6536   1.7134   1.7203   1.7538   1.7805   1.8000   1.8199
     1.8347   1.8772   1.8922   1.9106   1.9540   1.9696   1.9840   2.0043
     2.0839   2.0924   2.1227   2.1888   2.2859   2.4165   2.5645   2.7065

          k =-0.1250 0.3750-0.3750 (132616 PWs)   bands (ev):

   -18.5158 -18.4346 -18.3918 -18.3817 -18.3462 -18.3391 -18.3355 -18.3328
   -18.3297 -18.3214 -18.3199 -18.3133 -18.3131 -18.3035 -18.3019 -18.2922
   -18.2834 -18.2797 -18.2721 -18.2714 -18.2665 -18.2611 -18.2598 -18.2574
   -18.2529 -18.2457 -18.2352 -18.2348 -18.1928 -18.1832 -18.1808 -18.1777
   -18.1752 -18.1716 -18.1690 -18.1638 -18.1599 -18.1584 -18.0856 -18.0771
   -18.0729 -18.0693 -18.0580 -18.0578 -18.0535 -18.0488 -18.0422 -18.0362
    -9.5587  -9.4934  -9.3493  -9.2995  -9.2285  -9.1893  -9.1710  -9.1030
    -9.0300  -9.0233  -8.9316  -8.9110  -8.8622  -8.8156  -8.7914  -8.7296
    -8.7194  -8.6861  -8.6569  -8.6335  -8.5960  -8.5799  -8.5269  -8.4913
    -5.2964  -5.2743  -5.2733  -5.2178  -5.2074  -5.1960  -5.1683  -5.1666
    -5.1590  -5.1549  -5.1506  -5.1454  -5.1372  -5.1350  -5.1196  -5.1106
    -5.1098  -5.1027  -5.0712  -5.0544  -5.0484  -5.0469  -5.0417  -5.0406
    -4.2177  -4.0354  -3.9027  -3.7036  -3.6447  -3.4934  -3.3569  -3.1123
    -0.7645  -0.7131  -0.4494  -0.3903  -0.3641  -0.2757  -0.2145  -0.1687
    -0.1046  -0.0254   0.1009   0.1452   0.2610   0.3613   0.3967   0.4557
     0.4742   0.5316   0.5565   0.5835   0.6144   0.6459   0.6890   0.7495
     0.8117   0.8898   0.9219   0.9452   0.9666   0.9931   1.0244   1.1080
     1.1358   1.1589   1.1714   1.2155   1.2545   1.2796   1.3221   1.3588
     1.3913   1.4168   1.4597   1.4724   1.4880   1.5008   1.5471   1.5902
     1.6406   1.6666   1.6843   1.7141   1.7335   1.7723   1.8094   1.8289
     1.8491   1.8797   1.8909   1.9083   1.9339   1.9662   1.9799   2.0038
     2.0853   2.1226   2.1408   2.1756   2.2794   2.4269   2.5881   2.6700

          k = 0.1250-0.3750-0.3750 (132616 PWs)   bands (ev):

   -18.5158 -18.4346 -18.3918 -18.3817 -18.3462 -18.3391 -18.3355 -18.3328
   -18.3297 -18.3214 -18.3199 -18.3133 -18.3131 -18.3035 -18.3019 -18.2922
   -18.2834 -18.2797 -18.2721 -18.2714 -18.2665 -18.2611 -18.2598 -18.2574
   -18.2529 -18.2457 -18.2352 -18.2348 -18.1928 -18.1832 -18.1808 -18.1777
   -18.1752 -18.1716 -18.1690 -18.1638 -18.1599 -18.1584 -18.0856 -18.0771
   -18.0729 -18.0693 -18.0580 -18.0578 -18.0535 -18.0488 -18.0422 -18.0362
    -9.5585  -9.4932  -9.3519  -9.3007  -9.2216  -9.1839  -9.1780  -9.1049
    -9.0308  -9.0226  -8.9324  -8.9131  -8.8563  -8.8196  -8.7902  -8.7311
    -8.7199  -8.6826  -8.6588  -8.6324  -8.5981  -8.5782  -8.5274  -8.4914
    -5.2963  -5.2743  -5.2733  -5.2178  -5.2075  -5.1959  -5.1683  -5.1666
    -5.1590  -5.1547  -5.1506  -5.1453  -5.1377  -5.1344  -5.1196  -5.1106
    -5.1098  -5.1028  -5.0715  -5.0544  -5.0482  -5.0470  -5.0417  -5.0405
    -4.2190  -4.0179  -3.9264  -3.7039  -3.6461  -3.4666  -3.3742  -3.1128
    -0.7609  -0.7208  -0.4206  -0.3893  -0.3680  -0.3083  -0.2267  -0.1494
    -0.0868  -0.0431   0.1226   0.1481   0.2298   0.3545   0.4201   0.4293
     0.4946   0.5275   0.5570   0.5800   0.6344   0.6553   0.6797   0.7145
     0.8144   0.8711   0.9132   0.9550   1.0006   1.0150   1.0473   1.1117
     1.1177   1.1456   1.1630   1.2014   1.2607   1.2858   1.3229   1.3654
     1.3878   1.4044   1.4394   1.4475   1.4796   1.5220   1.5742   1.5946
     1.6482   1.6633   1.6951   1.7251   1.7538   1.7761   1.7964   1.8234
     1.8375   1.8725   1.8995   1.9201   1.9343   1.9579   1.9809   1.9994
     2.0707   2.0970   2.1400   2.2042   2.2700   2.4268   2.5931   2.6668

          k = 0.3750 0.1250-0.3750 (132616 PWs)   bands (ev):

   -18.5158 -18.4346 -18.3918 -18.3817 -18.3462 -18.3391 -18.3355 -18.3328
   -18.3297 -18.3214 -18.3199 -18.3133 -18.3131 -18.3035 -18.3019 -18.2922
   -18.2834 -18.2797 -18.2721 -18.2714 -18.2664 -18.2611 -18.2598 -18.2574
   -18.2529 -18.2457 -18.2352 -18.2348 -18.1928 -18.1832 -18.1808 -18.1777
   -18.1752 -18.1715 -18.1690 -18.1638 -18.1599 -18.1584 -18.0856 -18.0771
   -18.0729 -18.0693 -18.0581 -18.0578 -18.0535 -18.0488 -18.0422 -18.0362
    -9.5643  -9.4652  -9.3956  -9.2908  -9.2162  -9.1778  -9.1677  -9.1113
    -9.0442  -9.0123  -8.9447  -8.8936  -8.8525  -8.8189  -8.7983  -8.7490
    -8.7148  -8.6910  -8.6430  -8.6267  -8.6049  -8.5725  -8.5297  -8.4925
    -5.2963  -5.2746  -5.2730  -5.2178  -5.2071  -5.1956  -5.1686  -5.1667
    -5.1586  -5.1565  -5.1503  -5.1454  -5.1366  -5.1344  -5.1205  -5.1107
    -5.1092  -5.1037  -5.0716  -5.0536  -5.0482  -5.0469  -5.0421  -5.0406
    -4.2149  -4.0266  -3.8736  -3.7275  -3.6751  -3.5122  -3.3150  -3.1317
    -0.7231  -0.6781  -0.4932  -0.4267  -0.3810  -0.3146  -0.2111  -0.1557
    -0.0529  -0.0145   0.0988   0.1818   0.2799   0.3453   0.4214   0.4581
     0.4921   0.5010   0.5742   0.5846   0.6195   0.6379   0.6639   0.7309
     0.8548   0.8985   0.9162   0.9269   0.9585   1.0093   1.0456   1.0690
     1.1024   1.1528   1.1863   1.2275   1.2331   1.2877   1.3283   1.3453
     1.3712   1.4181   1.4551   1.4818   1.5061   1.5384   1.5590   1.5922
     1.6306   1.6462   1.6796   1.6980   1.7468   1.7810   1.8016   1.8280
     1.8476   1.8794   1.8845   1.9069   1.9398   1.9595   1.9804   2.0308
     2.0416   2.0830   2.1201   2.2539   2.2786   2.3700   2.5169   2.6439

          k =-0.3750-0.1250-0.3750 (132616 PWs)   bands (ev):

   -18.5158 -18.4346 -18.3918 -18.3817 -18.3462 -18.3391 -18.3355 -18.3328
   -18.3297 -18.3214 -18.3199 -18.3133 -18.3131 -18.3035 -18.3019 -18.2922
   -18.2834 -18.2797 -18.2721 -18.2714 -18.2664 -18.2611 -18.2598 -18.2574
   -18.2529 -18.2457 -18.2352 -18.2348 -18.1928 -18.1832 -18.1808 -18.1777
   -18.1752 -18.1715 -18.1690 -18.1638 -18.1599 -18.1584 -18.0856 -18.0771
   -18.0729 -18.0693 -18.0581 -18.0578 -18.0535 -18.0488 -18.0422 -18.0362
    -9.5646  -9.4654  -9.3940  -9.2895  -9.2224  -9.1784  -9.1637  -9.1099
    -9.0458  -9.0131  -8.9447  -8.8939  -8.8433  -8.8272  -8.7964  -8.7511
    -8.7138  -8.6869  -8.6476  -8.6296  -8.6012  -8.5731  -8.5295  -8.4922
    -5.2963  -5.2746  -5.2730  -5.2177  -5.2073  -5.1956  -5.1686  -5.1667
    -5.1585  -5.1565  -5.1504  -5.1454  -5.1369  -5.1340  -5.1204  -5.1106
    -5.1093  -5.1037  -5.0716  -5.0535  -5.0482  -5.0472  -5.0421  -5.0405
    -4.2243  -3.9900  -3.9018  -3.7518  -3.6555  -3.4771  -3.3586  -3.1177
    -0.7178  -0.6807  -0.5038  -0.4079  -0.3920  -0.3299  -0.1679  -0.1162
    -0.0905  -0.0424   0.1139   0.1644   0.2631   0.3374   0.4121   0.4445
     0.4887   0.5404   0.5610   0.6071   0.6191   0.6419   0.6794   0.7224
     0.8249   0.8871   0.9208   0.9445   0.9660   1.0075   1.0500   1.0949
     1.1067   1.1404   1.1693   1.1974   1.2374   1.2983   1.3155   1.3476
     1.3957   1.4301   1.4533   1.4865   1.5134   1.5298   1.5719   1.6087
     1.6250   1.6394   1.6793   1.7036   1.7483   1.7808   1.8036   1.8127
     1.8322   1.8547   1.8809   1.9043   1.9455   1.9631   1.9781   2.0266
     2.0510   2.1012   2.1329   2.2351   2.2755   2.3995   2.5039   2.6235

          k = 0.3750-0.1250 0.3750 (132616 PWs)   bands (ev):

   -18.5158 -18.4346 -18.3918 -18.3817 -18.3462 -18.3391 -18.3355 -18.3328
   -18.3297 -18.3214 -18.3199 -18.3133 -18.3131 -18.3035 -18.3019 -18.2922
   -18.2834 -18.2797 -18.2721 -18.2714 -18.2664 -18.2611 -18.2598 -18.2574
   -18.2529 -18.2457 -18.2352 -18.2348 -18.1928 -18.1832 -18.1808 -18.1777
   -18.1752 -18.1715 -18.1690 -18.1638 -18.1599 -18.1584 -18.0856 -18.0771
   -18.0729 -18.0693 -18.0581 -18.0578 -18.0535 -18.0488 -18.0422 -18.0362
    -9.5647  -9.4653  -9.3939  -9.2897  -9.2236  -9.1772  -9.1643  -9.1094
    -9.0457  -9.0131  -8.9419  -8.8938  -8.8537  -8.8197  -8.7989  -8.7477
    -8.7115  -8.6920  -8.6451  -8.6297  -8.6017  -8.5741  -8.5282  -8.4927
    -5.2963  -5.2746  -5.2730  -5.2178  -5.2071  -5.1956  -5.1683  -5.1668
    -5.1590  -5.1562  -5.1505  -5.1450  -5.1368  -5.1341  -5.1210  -5.1107
    -5.1095  -5.1031  -5.0715  -5.0536  -5.0483  -5.0471  -5.0420  -5.0406
    -4.2234  -3.9876  -3.9089  -3.7469  -3.6598  -3.4729  -3.3563  -3.1213
    -0.7315  -0.6591  -0.4921  -0.4259  -0.3986  -0.3253  -0.1738  -0.1188
    -0.0901  -0.0450   0.1239   0.1561   0.2633   0.3494   0.4216   0.4407
     0.5063   0.5109   0.5702   0.5970   0.6260   0.6511   0.6829   0.7026
     0.8402   0.8778   0.9165   0.9395   0.9968   1.0082   1.0419   1.0863
     1.1008   1.1441   1.1735   1.1910   1.2325   1.3120   1.3178   1.3663
     1.3870   1.4276   1.4541   1.4719   1.5137   1.5329   1.5517   1.5969
     1.6220   1.6412   1.6853   1.7217   1.7489   1.7665   1.7987   1.8074
     1.8351   1.8474   1.8804   1.9090   1.9385   1.9651   1.9828   2.0297
     2.0532   2.0987   2.1374   2.2439   2.2870   2.3980   2.5277   2.5985

          k =-0.3750 0.1250 0.3750 (132616 PWs)   bands (ev):

   -18.5158 -18.4346 -18.3918 -18.3817 -18.3462 -18.3391 -18.3355 -18.3328
   -18.3297 -18.3214 -18.3199 -18.3133 -18.3131 -18.3035 -18.3019 -18.2922
   -18.2834 -18.2797 -18.2721 -18.2714 -18.2664 -18.2611 -18.2598 -18.2574
   -18.2529 -18.2457 -18.2352 -18.2348 -18.1928 -18.1832 -18.1808 -18.1777
   -18.1752 -18.1715 -18.1690 -18.1638 -18.1599 -18.1584 -18.0856 -18.0771
   -18.0729 -18.0693 -18.0581 -18.0578 -18.0535 -18.0488 -18.0422 -18.0362
    -9.5644  -9.4652  -9.3956  -9.2900  -9.2176  -9.1787  -9.1654  -9.1128
    -9.0441  -9.0118  -8.9433  -8.8961  -8.8449  -8.8279  -8.7958  -8.7505
    -8.7111  -8.6922  -8.6434  -8.6275  -8.6047  -8.5729  -8.5288  -8.4928
    -5.2962  -5.2746  -5.2730  -5.2178  -5.2072  -5.1956  -5.1683  -5.1668
    -5.1591  -5.1560  -5.1504  -5.1451  -5.1372  -5.1336  -5.1210  -5.1107
    -5.1095  -5.1031  -5.0717  -5.0535  -5.0481  -5.0472  -5.0420  -5.0405
    -4.2162  -4.0288  -3.8657  -3.7321  -3.6717  -3.5175  -3.3112  -3.1341
    -0.7311  -0.6607  -0.4954  -0.4241  -0.3841  -0.3160  -0.2035  -0.1596
    -0.0440  -0.0325   0.1087   0.1709   0.2673   0.3388   0.4228   0.4636
     0.4755   0.5036   0.5531   0.6141   0.6262   0.6528   0.6855   0.7093
     0.8338   0.8932   0.9014   0.9350   0.9927   1.0121   1.0471   1.0816
     1.0988   1.1444   1.1731   1.2153   1.2480   1.2930   1.3132   1.3733
     1.3855   1.4211   1.4486   1.4791   1.5086   1.5291   1.5560   1.5904
     1.6244   1.6421   1.6703   1.7367   1.7452   1.7616   1.8154   1.8203
     1.8353   1.8547   1.8883   1.8987   1.9438   1.9604   1.9839   2.0234
     2.0466   2.0961   2.1257   2.2634   2.2804   2.3833   2.5239   2.6041

          k = 0.3750-0.3750 0.1250 (132616 PWs)   bands (ev):

   -18.5158 -18.4346 -18.3918 -18.3817 -18.3462 -18.3391 -18.3355 -18.3328
   -18.3297 -18.3214 -18.3199 -18.3133 -18.3131 -18.3035 -18.3019 -18.2922
   -18.2834 -18.2797 -18.2721 -18.2714 -18.2665 -18.2611 -18.2598 -18.2574
   -18.2529 -18.2457 -18.2352 -18.2348 -18.1928 -18.1832 -18.1808 -18.1777
   -18.1752 -18.1716 -18.1690 -18.1638 -18.1599 -18.1584 -18.0856 -18.0771
   -18.0729 -18.0693 -18.0580 -18.0578 -18.0535 -18.0488 -18.0422 -18.0362
    -9.5536  -9.4839  -9.3764  -9.3264  -9.2152  -9.1718  -9.1541  -9.0901
    -9.0408  -9.0161  -8.9237  -8.9000  -8.8776  -8.8418  -8.8184  -8.7234
    -8.7079  -8.6873  -8.6393  -8.6310  -8.5979  -8.5746  -8.5293  -8.4968
    -5.2963  -5.2745  -5.2732  -5.2179  -5.2072  -5.1956  -5.1689  -5.1670
    -5.1581  -5.1553  -5.1496  -5.1466  -5.1367  -5.1333  -5.1210  -5.1129
    -5.1095  -5.1017  -5.0716  -5.0543  -5.0488  -5.0474  -5.0413  -5.0402
    -4.2002  -4.0156  -3.9591  -3.7696  -3.6163  -3.3941  -3.3642  -3.1381
    -0.6551  -0.6158  -0.5650  -0.5247  -0.4260  -0.3488  -0.2199  -0.1495
    -0.0716  -0.0268   0.1166   0.2031   0.2377   0.3186   0.3838   0.4611
     0.5277   0.5563   0.5820   0.6184   0.6588   0.6870   0.7182   0.7486
     0.7977   0.8398   0.8498   0.8732   0.9386   0.9895   1.0158   1.0900
     1.1407   1.1859   1.2123   1.2603   1.3018   1.3173   1.3506   1.3770
     1.3836   1.4261   1.4329   1.4800   1.5182   1.5433   1.5679   1.5931
     1.6111   1.6383   1.6507   1.6726   1.7089   1.7451   1.7931   1.8046
     1.8464   1.8773   1.8960   1.9404   1.9520   1.9804   1.9893   2.0341
     2.0663   2.1113   2.1483   2.1957   2.2944   2.4561   2.5128   2.5998

          k =-0.3750-0.3750-0.1250 (132616 PWs)   bands (ev):

   -18.5158 -18.4346 -18.3918 -18.3817 -18.3462 -18.3391 -18.3355 -18.3328
   -18.3297 -18.3214 -18.3199 -18.3133 -18.3131 -18.3035 -18.3019 -18.2922
   -18.2834 -18.2797 -18.2721 -18.2714 -18.2665 -18.2611 -18.2598 -18.2574
   -18.2529 -18.2457 -18.2352 -18.2348 -18.1928 -18.1832 -18.1808 -18.1777
   -18.1752 -18.1716 -18.1690 -18.1638 -18.1599 -18.1584 -18.0856 -18.0771
   -18.0729 -18.0693 -18.0580 -18.0578 -18.0535 -18.0488 -18.0422 -18.0362
    -9.5535  -9.4840  -9.3769  -9.3257  -9.2147  -9.1736  -9.1527  -9.0896
    -9.0420  -9.0161  -8.9284  -8.8989  -8.8690  -8.8462  -8.8176  -8.7247
    -8.7118  -8.6798  -8.6445  -8.6308  -8.5958  -8.5742  -8.5309  -8.4961
    -5.2963  -5.2744  -5.2732  -5.2177  -5.2073  -5.1957  -5.1692  -5.1668
    -5.1576  -5.1556  -5.1492  -5.1474  -5.1364  -5.1335  -5.1204  -5.1128
    -5.1093  -5.1022  -5.0716  -5.0542  -5.0487  -5.0476  -5.0413  -5.0401
    -4.2014  -4.0117  -3.9645  -3.7616  -3.6194  -3.3985  -3.3666  -3.1335
    -0.6479  -0.6227  -0.5752  -0.5231  -0.4147  -0.3470  -0.2332  -0.1629
    -0.0547  -0.0052   0.0970   0.2002   0.2752   0.3260   0.3590   0.4776
     0.5225   0.5509   0.5679   0.6234   0.6519   0.6706   0.6929   0.7425
     0.7835   0.8150   0.8647   0.9180   0.9781   0.9854   1.0179   1.0773
     1.1394   1.1804   1.2118   1.2592   1.2999   1.3209   1.3392   1.3597
     1.4040   1.4190   1.4489   1.4995   1.5199   1.5383   1.5679   1.5894
     1.6088   1.6220   1.6655   1.6770   1.7123   1.7484   1.7749   1.8227
     1.8529   1.8795   1.9091   1.9246   1.9573   1.9901   1.9993   2.0201
     2.0510   2.0754   2.1707   2.1921   2.3139   2.4340   2.4835   2.6281

          k = 0.3750 0.3750-0.1250 (132616 PWs)   bands (ev):

   -18.5158 -18.4346 -18.3918 -18.3817 -18.3462 -18.3391 -18.3355 -18.3328
   -18.3297 -18.3214 -18.3199 -18.3133 -18.3131 -18.3035 -18.3019 -18.2922
   -18.2834 -18.2797 -18.2721 -18.2714 -18.2665 -18.2611 -18.2598 -18.2574
   -18.2529 -18.2457 -18.2352 -18.2348 -18.1928 -18.1832 -18.1808 -18.1777
   -18.1752 -18.1716 -18.1690 -18.1638 -18.1599 -18.1584 -18.0856 -18.0771
   -18.0729 -18.0693 -18.0580 -18.0578 -18.0535 -18.0488 -18.0422 -18.0362
    -9.5532  -9.4838  -9.3781  -9.3275  -9.2097  -9.1714  -9.1560  -9.0912
    -9.0400  -9.0174  -8.9228  -8.9050  -8.8774  -8.8377  -8.8180  -8.7230
    -8.7109  -8.6854  -8.6420  -8.6277  -8.5982  -8.5737  -8.5309  -8.4964
    -5.2963  -5.2745  -5.2732  -5.2179  -5.2071  -5.1957  -5.1693  -5.1669
    -5.1575  -5.1557  -5.1492  -5.1473  -5.1365  -5.1335  -5.1205  -5.1129
    -5.1092  -5.1022  -5.0717  -5.0543  -5.0487  -5.0473  -5.0412  -5.0402
    -4.1959  -4.0128  -3.9706  -3.7750  -3.6026  -3.4022  -3.3590  -3.1390
    -0.6433  -0.6206  -0.5733  -0.5403  -0.4103  -0.3417  -0.2306  -0.1922
    -0.0445   0.0040   0.0924   0.2131   0.2668   0.3337   0.3774   0.4920
     0.5160   0.5556   0.5665   0.6023   0.6584   0.6750   0.6965   0.7488
     0.7667   0.8201   0.8466   0.9056   0.9737   0.9968   1.0116   1.0992
     1.1365   1.1736   1.2075   1.2595   1.3078   1.3292   1.3533   1.3767
     1.3839   1.4102   1.4338   1.4755   1.4896   1.5372   1.5583   1.6016
     1.6169   1.6325   1.6721   1.6969   1.7247   1.7455   1.7754   1.8178
     1.8416   1.8802   1.9111   1.9441   1.9533   1.9802   2.0113   2.0206
     2.0444   2.0753   2.1599   2.1761   2.3266   2.4456   2.4904   2.6277

          k =-0.3750 0.3750 0.1250 (132616 PWs)   bands (ev):

   -18.5158 -18.4346 -18.3918 -18.3817 -18.3462 -18.3391 -18.3355 -18.3328
   -18.3297 -18.3214 -18.3199 -18.3133 -18.3131 -18.3035 -18.3019 -18.2922
   -18.2834 -18.2797 -18.2721 -18.2714 -18.2665 -18.2611 -18.2598 -18.2574
   -18.2529 -18.2457 -18.2352 -18.2348 -18.1928 -18.1832 -18.1808 -18.1777
   -18.1752 -18.1716 -18.1690 -18.1638 -18.1599 -18.1584 -18.0856 -18.0771
   -18.0729 -18.0693 -18.0580 -18.0578 -18.0535 -18.0488 -18.0422 -18.0362
    -9.5533  -9.4837  -9.3783  -9.3270  -9.2104  -9.1701  -9.1565  -9.0929
    -9.0402  -9.0160  -8.9256  -8.9022  -8.8711  -8.8456  -8.8169  -8.7244
    -8.7073  -8.6877  -8.6388  -8.6298  -8.5997  -8.5735  -8.5296  -8.4969
    -5.2963  -5.2745  -5.2732  -5.2178  -5.2073  -5.1956  -5.1689  -5.1671
    -5.1580  -5.1553  -5.1496  -5.1467  -5.1372  -5.1326  -5.1210  -5.1129
    -5.1095  -5.1017  -5.0718  -5.0543  -5.0485  -5.0476  -5.0412  -5.0401
    -4.1980  -4.0149  -3.9648  -3.7720  -3.6094  -3.4021  -3.3547  -3.1416
    -0.6444  -0.6139  -0.5652  -0.5397  -0.4364  -0.3282  -0.2341  -0.1516
    -0.0705  -0.0127   0.1146   0.1992   0.2381   0.3265   0.3851   0.4623
     0.5140   0.5591   0.5842   0.6208   0.6473   0.6808   0.7213   0.7542
     0.7803   0.8229   0.8588   0.8800   0.9579   0.9812   1.0271   1.1083
     1.1513   1.1843   1.1958   1.2582   1.2876   1.3167   1.3358   1.3775
     1.3956   1.4258   1.4479   1.4846   1.4997   1.5410   1.5610   1.5949
     1.6066   1.6178   1.6704   1.6910   1.7200   1.7384   1.7829   1.8234
     1.8611   1.8939   1.9025   1.9263   1.9413   1.9709   2.0055   2.0195
     2.0693   2.1066   2.1307   2.1866   2.3226   2.4451   2.4946   2.6095

          k =-0.3750-0.3750 0.3750 (132612 PWs)   bands (ev):

   -18.5158 -18.4346 -18.3918 -18.3817 -18.3462 -18.3391 -18.3355 -18.3328
   -18.3297 -18.3214 -18.3199 -18.3133 -18.3131 -18.3035 -18.3019 -18.2922
   -18.2834 -18.2797 -18.2721 -18.2714 -18.2665 -18.2611 -18.2598 -18.2574
   -18.2529 -18.2457 -18.2352 -18.2348 -18.1928 -18.1832 -18.1808 -18.1777
   -18.1752 -18.1716 -18.1690 -18.1638 -18.1599 -18.1584 -18.0856 -18.0771
   -18.0729 -18.0693 -18.0580 -18.0578 -18.0535 -18.0488 -18.0422 -18.0362
    -9.5514  -9.4822  -9.3723  -9.3251  -9.2142  -9.1735  -9.1646  -9.1021
    -9.0385  -9.0249  -8.9366  -8.9072  -8.8653  -8.8125  -8.8051  -8.7239
    -8.7136  -8.6840  -8.6408  -8.6300  -8.6017  -8.5786  -8.5320  -8.4971
    -5.2963  -5.2745  -5.2733  -5.2180  -5.2071  -5.1959  -5.1691  -5.1668
    -5.1579  -5.1559  -5.1494  -5.1464  -5.1372  -5.1342  -5.1207  -5.1107
    -5.1091  -5.1028  -5.0713  -5.0540  -5.0483  -5.0468  -5.0417  -5.0403
    -4.0967  -3.9261  -3.8990  -3.7487  -3.6653  -3.5538  -3.4871  -3.2982
    -0.5328  -0.4406  -0.3959  -0.2719  -0.2334  -0.2055  -0.1555  -0.1219
    -0.0377   0.0594   0.1042   0.2200   0.2440   0.3429   0.3818   0.4133
     0.4512   0.4780   0.4900   0.5213   0.5853   0.6228   0.6454   0.7311
     0.7901   0.8294   0.8424   0.8936   0.9499   0.9817   1.0194   1.0552
     1.0847   1.1020   1.1398   1.1913   1.2171   1.2567   1.2708   1.3119
     1.3581   1.3961   1.4370   1.4784   1.5106   1.5489   1.5818   1.5976
     1.6233   1.6325   1.7011   1.7318   1.7631   1.7793   1.8297   1.8354
     1.8512   1.8936   1.9192   1.9287   1.9447   1.9595   1.9884   2.0070
     2.0126   2.0451   2.0719   2.1443   2.1530   2.2348   2.2655   2.3586

          k =-0.3750 0.3750-0.3750 (132612 PWs)   bands (ev):

   -18.5158 -18.4346 -18.3918 -18.3817 -18.3462 -18.3391 -18.3355 -18.3328
   -18.3297 -18.3214 -18.3199 -18.3133 -18.3131 -18.3035 -18.3019 -18.2922
   -18.2834 -18.2797 -18.2721 -18.2714 -18.2665 -18.2611 -18.2598 -18.2574
   -18.2529 -18.2457 -18.2352 -18.2348 -18.1928 -18.1832 -18.1808 -18.1777
   -18.1752 -18.1716 -18.1690 -18.1638 -18.1599 -18.1584 -18.0856 -18.0771
   -18.0729 -18.0693 -18.0580 -18.0578 -18.0535 -18.0488 -18.0422 -18.0362
    -9.5518  -9.4823  -9.3704  -9.3238  -9.2209  -9.1754  -9.1603  -9.1012
    -9.0391  -9.0241  -8.9341  -8.9071  -8.8666  -8.8135  -8.8058  -8.7254
    -8.7092  -8.6849  -8.6412  -8.6326  -8.5996  -8.5803  -8.5305  -8.4974
    -5.2964  -5.2745  -5.2733  -5.2180  -5.2072  -5.1959  -5.1687  -5.1670
    -5.1584  -5.1555  -5.1496  -5.1461  -5.1370  -5.1343  -5.1212  -5.1107
    -5.1094  -5.1023  -5.0712  -5.0540  -5.0483  -5.0470  -5.0416  -5.0404
    -4.1066  -3.9281  -3.8568  -3.7845  -3.6585  -3.5421  -3.5053  -3.2934
    -0.5165  -0.4497  -0.4101  -0.2724  -0.2325  -0.1984  -0.1334  -0.0889
    -0.0638   0.0314   0.1251   0.1993   0.2416   0.2814   0.3620   0.4057
     0.4580   0.4911   0.5178   0.5486   0.6057   0.6463   0.6666   0.6901
     0.7818   0.8252   0.8801   0.8949   0.9326   0.9725   0.9898   1.0492
     1.0969   1.1188   1.1475   1.1866   1.2067   1.2512   1.2828   1.3205
     1.3525   1.4076   1.4489   1.4830   1.5080   1.5468   1.5585   1.5956
     1.6224   1.6538   1.6841   1.7222   1.7462   1.7944   1.8367   1.8422
     1.8569   1.8699   1.9114   1.9220   1.9404   1.9580   1.9753   2.0037
     2.0233   2.0457   2.1133   2.1311   2.1914   2.2288   2.2798   2.3170

          k = 0.3750-0.3750-0.3750 (132612 PWs)   bands (ev):

   -18.5158 -18.4346 -18.3918 -18.3817 -18.3462 -18.3391 -18.3355 -18.3328
   -18.3297 -18.3214 -18.3199 -18.3133 -18.3131 -18.3035 -18.3019 -18.2922
   -18.2834 -18.2797 -18.2721 -18.2714 -18.2665 -18.2611 -18.2598 -18.2574
   -18.2529 -18.2457 -18.2352 -18.2348 -18.1928 -18.1832 -18.1808 -18.1777
   -18.1752 -18.1716 -18.1690 -18.1638 -18.1599 -18.1584 -18.0856 -18.0771
   -18.0729 -18.0693 -18.0580 -18.0578 -18.0535 -18.0488 -18.0422 -18.0362
    -9.5515  -9.4821  -9.3726  -9.3243  -9.2151  -9.1745  -9.1625  -9.1038
    -9.0388  -9.0234  -8.9348  -8.9114  -8.8591  -8.8195  -8.8026  -8.7267
    -8.7084  -8.6848  -8.6410  -8.6312  -8.6019  -8.5786  -8.5309  -8.4976
    -5.2963  -5.2745  -5.2733  -5.2179  -5.2073  -5.1959  -5.1687  -5.1670
    -5.1584  -5.1555  -5.1496  -5.1461  -5.1376  -5.1336  -5.1212  -5.1107
    -5.1094  -5.1023  -5.0715  -5.0539  -5.0481  -5.0471  -5.0416  -5.0403
    -4.1007  -3.9283  -3.8907  -3.7333  -3.6842  -3.5606  -3.4762  -3.3015
    -0.5203  -0.4569  -0.3845  -0.2839  -0.2261  -0.2066  -0.1375  -0.1012
    -0.0602   0.0417   0.1312   0.1989   0.2385   0.3007   0.3729   0.3994
     0.4343   0.4749   0.5285   0.5679   0.5916   0.6371   0.6526   0.6829
     0.7860   0.8292   0.8730   0.8971   0.9225   0.9869   1.0288   1.0619
     1.1019   1.1175   1.1347   1.1705   1.2153   1.2366   1.2820   1.3259
     1.3631   1.3881   1.4403   1.4771   1.5055   1.5461   1.5783   1.5899
     1.6314   1.6683   1.6890   1.7273   1.7438   1.7902   1.8211   1.8544
     1.8655   1.8748   1.9030   1.9221   1.9414   1.9539   1.9722   2.0003
     2.0298   2.0541   2.0952   2.1246   2.1698   2.2368   2.2861   2.3220

     highest occupied level (ev):     3.1939

!    total energy              =   -2256.30061095 Ry
     estimated scf accuracy    <          4.0E-11 Ry

     The total energy is the sum of the following terms:
     one-electron contribution =    -989.06932142 Ry
     hartree contribution      =     622.61165415 Ry
     xc contribution           =    -647.52260962 Ry
     ewald contribution        =   -1242.32033406 Ry

     convergence has been achieved in  15 iterations

     Forces acting on atoms (cartesian axes, Ry/au):

     atom    1 type  1   force =    -0.00033523    0.00067199    0.00004508
     atom    2 type  2   force =     0.02082162   -0.00898965   -0.00466485
     atom    3 type  3   force =     0.00943193   -0.00952003    0.00048513
     atom    4 type  3   force =    -0.00075809    0.00050104   -0.01548827
     atom    5 type  3   force =    -0.01255597    0.01667679    0.00219007
     atom    6 type  1   force =     0.00262887   -0.00154672   -0.00288363
     atom    7 type  2   force =    -0.00282923    0.00627231    0.00832177
     atom    8 type  3   force =    -0.01292787    0.00172535    0.00167583
     atom    9 type  3   force =    -0.00509099   -0.00349449    0.00785113
     atom   10 type  3   force =     0.00365078   -0.00371238   -0.00347733
     atom   11 type  1   force =    -0.00462264    0.00328412    0.00214819
     atom   12 type  2   force =     0.01477603   -0.00442153    0.01238980
     atom   13 type  3   force =    -0.00224215    0.00440078   -0.00504467
     atom   14 type  3   force =    -0.00893593   -0.00001995    0.01298458
     atom   15 type  3   force =     0.00024903    0.00805911    0.01038478
     atom   16 type  1   force =     0.00124062    0.00065514   -0.00387580
     atom   17 type  2   force =    -0.00351215   -0.00909748   -0.00792382
     atom   18 type  3   force =    -0.00472199   -0.00712441    0.00295493
     atom   19 type  3   force =    -0.00069473   -0.00788828   -0.01417560
     atom   20 type  3   force =     0.00126296    0.00968500    0.00069024
     atom   21 type  1   force =    -0.00057643   -0.01297881    0.01879921
     atom   22 type  2   force =    -0.01305681    0.00674403   -0.03121631
     atom   23 type  3   force =    -0.00486684    0.00024598   -0.00316368
     atom   24 type  3   force =     0.00090324   -0.00243277    0.03275460
     atom   25 type  3   force =     0.00076581   -0.00934620    0.00343274
     atom   26 type  1   force =    -0.00443417    0.00023051   -0.00415058
     atom   27 type  2   force =     0.00519278    0.01116898    0.01499384
     atom   28 type  3   force =     0.01411857   -0.00396191   -0.00401224
     atom   29 type  3   force =    -0.00281604    0.00047750   -0.00227622
     atom   30 type  3   force =    -0.00354577   -0.00636053   -0.00113775
     atom   31 type  1   force =     0.00329190    0.00042433    0.00560038
     atom   32 type  2   force =    -0.01627866   -0.01129635   -0.01735014
     atom   33 type  3   force =     0.01489753    0.01286807   -0.01172186
     atom   34 type  3   force =     0.00102756   -0.00355771    0.00515162
     atom   35 type  3   force =    -0.00053716    0.01393854   -0.00198785
     atom   36 type  1   force =    -0.00322116    0.00163579   -0.00785564
     atom   37 type  2   force =     0.00898526    0.00070980    0.00515287
     atom   38 type  3   force =     0.00021625    0.00096551   -0.00093427
     atom   39 type  3   force =     0.00166527    0.00316736   -0.00013455
     atom   40 type  3   force =     0.00343400    0.00124119   -0.00453172

     Total force =     0.093425     Total SCF correction =     0.000030


     Computing stress (Cartesian axis) and pressure

          total   stress  (Ry/bohr**3)                   (kbar)     P=       -6.85
  -0.00005850  -0.00000553   0.00000024           -8.61       -0.81        0.03
  -0.00000553  -0.00004155  -0.00000267           -0.81       -6.11       -0.39
   0.00000024  -0.00000267  -0.00003970            0.03       -0.39       -5.84

 
     init_run     :     20.26s CPU     17.12s WALL (       1 calls)
     electrons    :    199.46s CPU    211.39s WALL (       1 calls)
     forces       :      8.82s CPU      3.94s WALL (       1 calls)
     stress       :     31.76s CPU     31.22s WALL (       1 calls)

     Called by init_run:
     wfcinit      :     12.31s CPU     14.06s WALL (       1 calls)
                                       14.06s GPU  (       1 calls)
     potinit      :      4.58s CPU      1.39s WALL (       1 calls)
     hinit0       :      2.77s CPU      0.98s WALL (       1 calls)

     Called by electrons:
     c_bands      :    118.70s CPU    168.99s WALL (      16 calls)
     sum_band     :     21.57s CPU     21.10s WALL (      16 calls)
                                       21.10s GPU  (      16 calls)
     v_of_rho     :     54.86s CPU     16.57s WALL (      16 calls)
     mix_rho      :      6.50s CPU      4.99s WALL (      16 calls)

     Called by c_bands:
     init_us_2    :      2.21s CPU      3.03s WALL (     280 calls)
                                        3.03s GPU  (     280 calls)
     cegterg      :     79.49s CPU    127.14s WALL (     128 calls)

     Called by *egterg:
     cdiaghg      :     14.20s CPU     26.54s WALL (     652 calls)
                                       26.50s GPU  (     652 calls)
     h_psi        :     53.55s CPU     72.59s WALL (     668 calls)
                                       72.15s GPU  (     668 calls)
     g_psi        :      0.00s CPU      0.35s WALL (     532 calls)
                                        0.34s GPU  (     532 calls)

     Called by h_psi:
     h_psi:calbec :      0.32s CPU      9.85s WALL (     668 calls)
                                        9.84s GPU  (     668 calls)
     vloc_psi     :     38.66s CPU     52.85s WALL (     668 calls)
                                       51.95s GPU  (     668 calls)
     add_vuspsi   :      0.34s CPU      9.81s WALL (     668 calls)
                                        9.80s GPU  (     668 calls)

     General routines
     calbec       :      0.32s CPU      0.39s WALL (     708 calls)
     fft          :     25.57s CPU      6.55s WALL (     185 calls)
                                        0.00s GPU  (       6 calls)
     ffts         :      2.62s CPU      0.68s WALL (      16 calls)
     fftw         :      0.69s CPU     61.44s WALL (   10304 calls)
                                       45.83s GPU  (   10304 calls)
 
     Parallel routines
 
     PWSCF        :   4m20.94s CPU   4m24.41s WALL

 
   This run was terminated on:  19:20: 7  22Apr2021            

=------------------------------------------------------------------------------=
   JOB DONE.
=------------------------------------------------------------------------------=
