
     Program PWSCF v.6.7MaX starts on 22Apr2021 at 20:44:31 

     This program is part of the open-source Quantum ESPRESSO suite
     for quantum simulation of materials; please cite
         "P. Giannozzi et al., J. Phys.:Condens. Matter 21 395502 (2009);
         "P. Giannozzi et al., J. Phys.:Condens. Matter 29 465901 (2017);
         "P. Giannozzi et al., J. Chem. Phys. 152 154105 (2020);
          URL http://www.quantum-espresso.org", 
     in publications or presentations arising from this work. More details at
     http://www.quantum-espresso.org/quote

     Parallel version (MPI & OpenMP), running on      16 processor cores
     Number of MPI processes:                 4
     Threads/MPI process:                     4

     MPI processes distributed on     1 nodes
     K-points division:     npool     =       4
     Reading input from ESP_5.pwi
Warning: card &CELL ignored
Warning: card / ignored

     Current dimensions of program PWSCF are:
     Max number of different atomic species (ntypx) = 10
     Max number of k-points (npk) =  40000
     Max angular momentum in pseudopotentials (lmaxx) =  3
     Message from routine read_pp_mesh:
     mesh size missing, using the one in header
     Message from routine read_pp_mesh:
     mesh size missing, using the one in header
     Message from routine read_pp_mesh:
     mesh size missing, using the one in header

     Subspace diagonalization in iterative solution of the eigenvalue problem:
     a serial algorithm will be used

 
     G-vector sticks info
     --------------------
     sticks:   dense  smooth     PW     G-vecs:    dense   smooth      PW
     Sum       12589   12589   3289              1061107  1061107  140905
 
     Using Slab Decomposition
 


     bravais-lattice index     =            0
     lattice parameter (alat)  =      23.7585  a.u.
     unit-cell volume          =   13410.8736 (a.u.)^3
     number of atoms/cell      =           40
     number of atomic types    =            3
     number of electrons       =       352.00
     number of Kohn-Sham states=          176
     kinetic-energy cutoff     =      70.0000  Ry
     charge density cutoff     =     280.0000  Ry
     scf convergence threshold =      1.0E-10
     mixing beta               =       0.7000
     number of iterations used =            8  plain     mixing
     Exchange-correlation= PBESOL
                           (   1   4  10   8   0   0   0)

     GPU acceleration is ACTIVE.


     celldm(1)=  23.758500  celldm(2)=   0.000000  celldm(3)=   0.000000
     celldm(4)=   0.000000  celldm(5)=   0.000000  celldm(6)=   0.000000

     crystal axes: (cart. coord. in units of alat)
               a(1) = (   1.000000   0.000000   0.000000 )  
               a(2) = (   0.000000   1.000000   0.000000 )  
               a(3) = (   0.000000   0.000000   1.000000 )  

     reciprocal axes: (cart. coord. in units 2 pi/alat)
               b(1) = (  1.000000  0.000000  0.000000 )  
               b(2) = (  0.000000  1.000000  0.000000 )  
               b(3) = (  0.000000  0.000000  1.000000 )  


     PseudoPot. # 1 for Cs read from file:
     /m100/home/userexternal/lmonacel/espresso/pseudo/Cs-nc-pbesol.upf
     MD5 check sum: 9d2f2206a14dc5b3b3f3fbfae186bed4
     Pseudo is Norm-conserving + core correction, Zval =  9.0
     Generated using ONCVPSP code by D. R. Hamann
     Using radial grid of 2384 points,  8 beta functions with: 
                l(1) =   0
                l(2) =   0
                l(3) =   1
                l(4) =   1
                l(5) =   2
                l(6) =   2
                l(7) =   3
                l(8) =   3

     PseudoPot. # 2 for Sn read from file:
     /m100/home/userexternal/lmonacel/espresso/pseudo/Sn-nc-pbesol.upf
     MD5 check sum: c2995d571af40102bfea7461443d92cf
     Pseudo is Norm-conserving + core correction, Zval = 14.0
     Generated using ONCVPSP code by D. R. Hamann
     Using radial grid of 1628 points,  6 beta functions with: 
                l(1) =   0
                l(2) =   0
                l(3) =   1
                l(4) =   1
                l(5) =   2
                l(6) =   2

     PseudoPot. # 3 for I  read from file:
     /m100/home/userexternal/lmonacel/espresso/pseudo/I-nc-pbesol.upf
     MD5 check sum: 80ed5ceb2eb9c553cfb6760a299d9c5b
     Pseudo is Norm-conserving + core correction, Zval =  7.0
     Generated using ONCVPSP code by D. R. Hamann
     Using radial grid of 1182 points,  6 beta functions with: 
                l(1) =   0
                l(2) =   0
                l(3) =   1
                l(4) =   1
                l(5) =   2
                l(6) =   2

     atomic species   valence    mass     pseudopotential
        Cs             9.00   132.90545     Cs( 1.00)
        Sn            14.00   118.71000     Sn( 1.00)
        I              7.00   126.90447     I ( 1.00)

     No symmetry found



   Cartesian axes

     site n.     atom                  positions (alat units)
         1           Cs  tau(   1) = (   0.2717513   0.2611396   0.2384070  )
         2           Sn  tau(   2) = (  -0.0055922   0.0155418  -0.0018600  )
         3           I   tau(   3) = (   0.2523516  -0.0318679  -0.0113859  )
         4           I   tau(   4) = (   0.0111399  -0.0031137   0.2588771  )
         5           I   tau(   5) = (  -0.0109392   0.2459983  -0.0012378  )
         6           Cs  tau(   6) = (   0.2500399   0.2315041   0.7542354  )
         7           Sn  tau(   7) = (  -0.0131727  -0.0118158   0.5072138  )
         8           I   tau(   8) = (   0.2361659  -0.0067503   0.5117578  )
         9           I   tau(   9) = (  -0.0035144  -0.0016074   0.7550831  )
        10           I   tau(  10) = (  -0.0121782   0.2532816   0.5076673  )
        11           Cs  tau(  11) = (   0.2371043   0.7307159   0.2419717  )
        12           Sn  tau(  12) = (   0.0124213   0.5259887   0.0282354  )
        13           I   tau(  13) = (   0.2709404   0.4737799   0.0175898  )
        14           I   tau(  14) = (  -0.0123712   0.4912055   0.2604211  )
        15           I   tau(  15) = (   0.0262002   0.7583802   0.0195747  )
        16           Cs  tau(  16) = (   0.2689686   0.6995215   0.7170647  )
        17           Sn  tau(  17) = (  -0.0130190   0.4876373   0.5290943  )
        18           I   tau(  18) = (   0.2425557   0.4877752   0.4960723  )
        19           I   tau(  19) = (   0.0343630   0.5055009   0.7617709  )
        20           I   tau(  20) = (  -0.0195238   0.7566015   0.4874665  )
        21           Cs  tau(  21) = (   0.7837787   0.2289145   0.2679382  )
        22           Sn  tau(  22) = (   0.4905578   0.0149502  -0.0185836  )
        23           I   tau(  23) = (   0.7409983  -0.0159253  -0.0112119  )
        24           I   tau(  24) = (   0.5182551   0.0153102   0.2540884  )
        25           I   tau(  25) = (   0.4900844   0.2475614  -0.0201502  )
        26           Cs  tau(  26) = (   0.7304724   0.2669115   0.7632111  )
        27           Sn  tau(  27) = (   0.5014342   0.0199259   0.4837156  )
        28           I   tau(  28) = (   0.7369763   0.0051989   0.4732196  )
        29           I   tau(  29) = (   0.5231512   0.0213783   0.7520735  )
        30           I   tau(  30) = (   0.4860782   0.2603243   0.4651969  )
        31           Cs  tau(  31) = (   0.7139590   0.7606485   0.2599193  )
        32           Sn  tau(  32) = (   0.5121740   0.5002620  -0.0094671  )
        33           I   tau(  33) = (   0.7634237   0.5273266   0.0251072  )
        34           I   tau(  34) = (   0.5359526   0.5069484   0.2329723  )
        35           I   tau(  35) = (   0.4853084   0.7494819  -0.0149039  )
        36           Cs  tau(  36) = (   0.7316627   0.7612675   0.7537692  )
        37           Sn  tau(  37) = (   0.5050163   0.5177703   0.4875323  )
        38           I   tau(  38) = (   0.7486302   0.5003524   0.5402799  )
        39           I   tau(  39) = (   0.5159214   0.4883295   0.7445183  )
        40           I   tau(  40) = (   0.4623964   0.7609907   0.4932999  )

     number of k points=    32
                       cart. coord. in units 2pi/alat
        k(    1) = (   0.1250000   0.1250000   0.1250000), wk =   0.0625000
        k(    2) = (   0.1250000   0.1250000   0.3750000), wk =   0.0625000
        k(    3) = (   0.1250000   0.3750000   0.3750000), wk =   0.0625000
        k(    4) = (   0.3750000   0.3750000   0.3750000), wk =   0.0625000
        k(    5) = (  -0.1250000  -0.1250000   0.1250000), wk =   0.0625000
        k(    6) = (  -0.1250000   0.1250000  -0.1250000), wk =   0.0625000
        k(    7) = (   0.1250000  -0.1250000  -0.1250000), wk =   0.0625000
        k(    8) = (  -0.1250000  -0.1250000   0.3750000), wk =   0.0625000
        k(    9) = (  -0.1250000   0.1250000  -0.3750000), wk =   0.0625000
        k(   10) = (   0.1250000  -0.1250000  -0.3750000), wk =   0.0625000
        k(   11) = (   0.3750000  -0.1250000   0.1250000), wk =   0.0625000
        k(   12) = (  -0.3750000  -0.1250000  -0.1250000), wk =   0.0625000
        k(   13) = (   0.3750000   0.1250000  -0.1250000), wk =   0.0625000
        k(   14) = (  -0.3750000   0.1250000   0.1250000), wk =   0.0625000
        k(   15) = (  -0.1250000   0.3750000   0.1250000), wk =   0.0625000
        k(   16) = (  -0.1250000  -0.3750000  -0.1250000), wk =   0.0625000
        k(   17) = (   0.1250000   0.3750000  -0.1250000), wk =   0.0625000
        k(   18) = (   0.1250000  -0.3750000   0.1250000), wk =   0.0625000
        k(   19) = (  -0.1250000  -0.3750000   0.3750000), wk =   0.0625000
        k(   20) = (  -0.1250000   0.3750000  -0.3750000), wk =   0.0625000
        k(   21) = (   0.1250000  -0.3750000  -0.3750000), wk =   0.0625000
        k(   22) = (   0.3750000   0.1250000  -0.3750000), wk =   0.0625000
        k(   23) = (  -0.3750000  -0.1250000  -0.3750000), wk =   0.0625000
        k(   24) = (   0.3750000  -0.1250000   0.3750000), wk =   0.0625000
        k(   25) = (  -0.3750000   0.1250000   0.3750000), wk =   0.0625000
        k(   26) = (   0.3750000  -0.3750000   0.1250000), wk =   0.0625000
        k(   27) = (  -0.3750000  -0.3750000  -0.1250000), wk =   0.0625000
        k(   28) = (   0.3750000   0.3750000  -0.1250000), wk =   0.0625000
        k(   29) = (  -0.3750000   0.3750000   0.1250000), wk =   0.0625000
        k(   30) = (  -0.3750000  -0.3750000   0.3750000), wk =   0.0625000
        k(   31) = (  -0.3750000   0.3750000  -0.3750000), wk =   0.0625000
        k(   32) = (   0.3750000  -0.3750000  -0.3750000), wk =   0.0625000

     Dense  grid:  1061107 G-vectors     FFT dimensions: ( 128, 128, 128)

     Estimated max dynamical RAM per process >       6.82 GB

     Estimated total dynamical RAM >      27.27 GB

     Initial potential from superposition of free atoms

     starting charge  351.69472, renormalised to  352.00000
     Starting wfcs are  208 randomized atomic wfcs

     total cpu time spent up to now is       17.7 secs

     Self-consistent Calculation

     iteration #  1     ecut=    70.00 Ry     beta= 0.70
     Davidson diagonalization with overlap
     ethr =  1.00E-02,  avg # of iterations =  2.0

     Threshold (ethr) on eigenvalues was too large:
     Diagonalizing with lowered threshold

     Davidson diagonalization with overlap
     ethr =  2.08E-04,  avg # of iterations =  4.0

     total cpu time spent up to now is       38.7 secs

     total energy              =   -2256.04647649 Ry
     estimated scf accuracy    <       0.62796353 Ry

     iteration #  2     ecut=    70.00 Ry     beta= 0.70
     Davidson diagonalization with overlap
     ethr =  1.78E-04,  avg # of iterations =  3.3

     total cpu time spent up to now is       51.5 secs

     total energy              =   -2256.23755620 Ry
     estimated scf accuracy    <       0.28533443 Ry

     iteration #  3     ecut=    70.00 Ry     beta= 0.70
     Davidson diagonalization with overlap
     ethr =  8.11E-05,  avg # of iterations =  2.9

     total cpu time spent up to now is       63.2 secs

     total energy              =   -2256.29264164 Ry
     estimated scf accuracy    <       0.02381308 Ry

     iteration #  4     ecut=    70.00 Ry     beta= 0.70
     Davidson diagonalization with overlap
     ethr =  6.77E-06,  avg # of iterations =  4.1

     total cpu time spent up to now is       76.2 secs

     total energy              =   -2256.30067054 Ry
     estimated scf accuracy    <       0.00524236 Ry

     iteration #  5     ecut=    70.00 Ry     beta= 0.70
     Davidson diagonalization with overlap
     ethr =  1.49E-06,  avg # of iterations =  3.1

     total cpu time spent up to now is       88.3 secs

     total energy              =   -2256.30164453 Ry
     estimated scf accuracy    <       0.00100474 Ry

     iteration #  6     ecut=    70.00 Ry     beta= 0.70
     Davidson diagonalization with overlap
     ethr =  2.85E-07,  avg # of iterations =  4.1

     total cpu time spent up to now is      101.0 secs

     total energy              =   -2256.30185904 Ry
     estimated scf accuracy    <       0.00013757 Ry

     iteration #  7     ecut=    70.00 Ry     beta= 0.70
     Davidson diagonalization with overlap
     ethr =  3.91E-08,  avg # of iterations =  4.8

     total cpu time spent up to now is      114.6 secs

     total energy              =   -2256.30190444 Ry
     estimated scf accuracy    <       0.00001819 Ry

     iteration #  8     ecut=    70.00 Ry     beta= 0.70
     Davidson diagonalization with overlap
     ethr =  5.17E-09,  avg # of iterations =  3.2

     total cpu time spent up to now is      127.9 secs

     total energy              =   -2256.30191192 Ry
     estimated scf accuracy    <       0.00000266 Ry

     iteration #  9     ecut=    70.00 Ry     beta= 0.70
     Davidson diagonalization with overlap
     ethr =  7.56E-10,  avg # of iterations =  5.5

     total cpu time spent up to now is      143.5 secs

     total energy              =   -2256.30191315 Ry
     estimated scf accuracy    <       0.00000088 Ry

     iteration # 10     ecut=    70.00 Ry     beta= 0.70
     Davidson diagonalization with overlap
     ethr =  2.51E-10,  avg # of iterations =  3.8

     total cpu time spent up to now is      156.3 secs

     total energy              =   -2256.30191337 Ry
     estimated scf accuracy    <       0.00000017 Ry

     iteration # 11     ecut=    70.00 Ry     beta= 0.70
     Davidson diagonalization with overlap
     ethr =  4.81E-11,  avg # of iterations =  3.8

     total cpu time spent up to now is      170.3 secs

     total energy              =   -2256.30191344 Ry
     estimated scf accuracy    <       0.00000002 Ry

     iteration # 12     ecut=    70.00 Ry     beta= 0.70
     Davidson diagonalization with overlap
     ethr =  5.09E-12,  avg # of iterations =  6.6

     total cpu time spent up to now is      188.0 secs

     total energy              =   -2256.30191345 Ry
     estimated scf accuracy    <       0.00000001 Ry

     iteration # 13     ecut=    70.00 Ry     beta= 0.70
     Davidson diagonalization with overlap
     ethr =  3.63E-12,  avg # of iterations =  2.8

     total cpu time spent up to now is      200.0 secs

     total energy              =   -2256.30191346 Ry
     estimated scf accuracy    <          1.1E-09 Ry

     iteration # 14     ecut=    70.00 Ry     beta= 0.70
     Davidson diagonalization with overlap
     ethr =  3.16E-13,  avg # of iterations =  5.2

     total cpu time spent up to now is      215.6 secs

     total energy              =   -2256.30191346 Ry
     estimated scf accuracy    <          1.5E-10 Ry

     iteration # 15     ecut=    70.00 Ry     beta= 0.70
     Davidson diagonalization with overlap
     ethr =  1.00E-13,  avg # of iterations =  3.6

     total cpu time spent up to now is      228.3 secs

     End of self-consistent calculation

          k = 0.1250 0.1250 0.1250 (132670 PWs)   bands (ev):

   -18.5109 -18.4621 -18.4517 -18.4480 -18.4477 -18.4433 -18.4393 -18.4351
   -18.3903 -18.3639 -18.3489 -18.3257 -18.2613 -18.2353 -18.2245 -18.2191
   -18.2144 -18.2114 -18.2019 -18.1927 -18.1860 -18.1843 -18.1736 -18.1724
   -18.1713 -18.1681 -18.1657 -18.1637 -18.1615 -18.1593 -18.1542 -18.1510
   -18.1408 -18.1197 -18.1038 -18.1003 -18.0992 -18.0914 -18.0905 -18.0859
   -18.0856 -18.0779 -18.0770 -18.0649 -18.0605 -18.0504 -18.0428 -18.0403
    -9.4734  -9.3637  -9.3469  -9.1957  -9.1538  -9.0909  -9.0532  -9.0392
    -9.0075  -8.9929  -8.9748  -8.9248  -8.9085  -8.8913  -8.8677  -8.8519
    -8.7577  -8.7293  -8.6960  -8.6694  -8.6438  -8.5679  -8.5387  -8.4390
    -5.2813  -5.2666  -5.2583  -5.2438  -5.2322  -5.2276  -5.2101  -5.2073
    -5.1932  -5.1628  -5.1593  -5.1562  -5.1462  -5.1351  -5.1257  -5.1200
    -5.1162  -5.1141  -5.1057  -5.0972  -5.0926  -5.0597  -5.0430  -5.0359
    -4.4396  -3.9409  -3.8973  -3.8772  -3.3949  -3.3486  -3.2981  -2.7442
    -0.7682  -0.7275  -0.6634  -0.6096  -0.5769  -0.5386  -0.4966  -0.4619
    -0.4393  -0.3123  -0.2719  -0.2214   0.4024   0.4233   0.4732   0.5731
     0.6306   0.6805   0.7353   0.7657   0.8064   0.8898   0.9325   0.9495
     0.9739   1.0090   1.0455   1.0685   1.0936   1.1097   1.1313   1.1735
     1.1905   1.2361   1.2648   1.2799   1.2995   1.3413   1.3649   1.3797
     1.4179   1.4343   1.4582   1.4761   1.5058   1.5307   1.5426   1.5748
     1.5954   1.6126   1.6398   1.6639   1.6847   1.7082   1.7230   1.7499
     1.7660   1.7894   1.8237   1.9440   2.0122   2.0508   2.1041   2.1527
     2.2022   2.2319   2.2653   2.3480   2.6733   2.7200   2.8268   3.2001

          k = 0.1250 0.1250 0.3750 (132608 PWs)   bands (ev):

   -18.5109 -18.4621 -18.4517 -18.4480 -18.4477 -18.4433 -18.4393 -18.4351
   -18.3903 -18.3639 -18.3489 -18.3257 -18.2613 -18.2353 -18.2245 -18.2191
   -18.2144 -18.2114 -18.2019 -18.1927 -18.1860 -18.1843 -18.1736 -18.1724
   -18.1713 -18.1681 -18.1657 -18.1637 -18.1615 -18.1593 -18.1542 -18.1510
   -18.1408 -18.1197 -18.1038 -18.1003 -18.0992 -18.0914 -18.0905 -18.0859
   -18.0856 -18.0779 -18.0770 -18.0649 -18.0605 -18.0504 -18.0428 -18.0403
    -9.4479  -9.3970  -9.3371  -9.1914  -9.1583  -9.1211  -9.0577  -9.0329
    -9.0064  -8.9882  -8.9761  -8.9204  -8.9064  -8.8805  -8.8653  -8.8428
    -8.7580  -8.7310  -8.6820  -8.6731  -8.6556  -8.5677  -8.5374  -8.4436
    -5.2812  -5.2665  -5.2581  -5.2435  -5.2321  -5.2274  -5.2100  -5.2072
    -5.1927  -5.1632  -5.1595  -5.1561  -5.1461  -5.1353  -5.1258  -5.1203
    -5.1162  -5.1142  -5.1057  -5.0974  -5.0928  -5.0599  -5.0431  -5.0361
    -4.3093  -4.0893  -3.7845  -3.7623  -3.5672  -3.5076  -3.2030  -2.9637
    -0.7117  -0.6908  -0.6037  -0.5917  -0.5176  -0.4704  -0.4316  -0.3262
    -0.1961  -0.0912   0.0249   0.1046   0.3811   0.4050   0.4535   0.4750
     0.5457   0.5856   0.6242   0.6691   0.6990   0.7215   0.7634   0.8171
     0.8635   0.8875   0.9645   0.9926   1.0712   1.0875   1.1351   1.1687
     1.1879   1.2345   1.2443   1.2816   1.3155   1.3470   1.3570   1.3914
     1.4212   1.4341   1.4658   1.4765   1.5116   1.5267   1.5582   1.5914
     1.6054   1.6368   1.6649   1.6882   1.7159   1.7431   1.7542   1.7747
     1.7942   1.8153   1.8363   1.8794   1.9403   2.0043   2.0439   2.0781
     2.0963   2.1475   2.2561   2.3506   2.4367   2.5204   2.7719   2.9397

          k = 0.1250 0.3750 0.3750 (132616 PWs)   bands (ev):

   -18.5109 -18.4621 -18.4517 -18.4480 -18.4477 -18.4433 -18.4393 -18.4351
   -18.3903 -18.3639 -18.3489 -18.3257 -18.2613 -18.2353 -18.2245 -18.2191
   -18.2144 -18.2114 -18.2019 -18.1927 -18.1860 -18.1843 -18.1736 -18.1724
   -18.1713 -18.1681 -18.1657 -18.1637 -18.1615 -18.1593 -18.1542 -18.1510
   -18.1408 -18.1197 -18.1038 -18.1003 -18.0992 -18.0914 -18.0905 -18.0859
   -18.0856 -18.0779 -18.0770 -18.0649 -18.0605 -18.0504 -18.0428 -18.0403
    -9.4341  -9.3821  -9.3618  -9.2063  -9.1464  -9.1021  -9.0858  -9.0564
    -9.0136  -8.9917  -8.9758  -8.9271  -8.8835  -8.8685  -8.8583  -8.8178
    -8.7651  -8.7304  -8.6841  -8.6712  -8.6554  -8.5750  -8.5411  -8.4442
    -5.2811  -5.2664  -5.2574  -5.2437  -5.2321  -5.2277  -5.2102  -5.2073
    -5.1930  -5.1626  -5.1592  -5.1560  -5.1460  -5.1355  -5.1258  -5.1189
    -5.1158  -5.1146  -5.1069  -5.0977  -5.0931  -5.0600  -5.0430  -5.0361
    -4.1853  -3.9774  -3.9362  -3.7498  -3.6049  -3.4268  -3.3768  -3.1634
    -0.6747  -0.5865  -0.5528  -0.4466  -0.3281  -0.2870  -0.2166  -0.1181
    -0.0893  -0.0111   0.0241   0.2339   0.2911   0.3690   0.4124   0.4498
     0.4995   0.5582   0.5946   0.6175   0.6520   0.6664   0.7029   0.7248
     0.7752   0.8562   0.8798   0.9026   0.9464   1.0360   1.0842   1.1370
     1.1613   1.1845   1.2069   1.2324   1.2778   1.2873   1.3361   1.3514
     1.3836   1.4319   1.4716   1.4922   1.5081   1.5624   1.5680   1.5947
     1.6558   1.6654   1.7050   1.7168   1.7478   1.7640   1.7759   1.7995
     1.8153   1.8258   1.8481   1.8709   1.9264   1.9459   1.9886   2.0383
     2.0562   2.0805   2.1035   2.2500   2.3760   2.4608   2.5376   2.7091

          k = 0.3750 0.3750 0.3750 (132612 PWs)   bands (ev):

   -18.5109 -18.4621 -18.4517 -18.4480 -18.4477 -18.4433 -18.4393 -18.4351
   -18.3903 -18.3639 -18.3489 -18.3257 -18.2613 -18.2353 -18.2245 -18.2191
   -18.2144 -18.2114 -18.2019 -18.1927 -18.1860 -18.1843 -18.1736 -18.1724
   -18.1713 -18.1681 -18.1657 -18.1637 -18.1615 -18.1593 -18.1542 -18.1510
   -18.1408 -18.1197 -18.1038 -18.1002 -18.0993 -18.0914 -18.0905 -18.0859
   -18.0856 -18.0779 -18.0770 -18.0649 -18.0605 -18.0504 -18.0428 -18.0403
    -9.4298  -9.3784  -9.3569  -9.1863  -9.1672  -9.1323  -9.1037  -9.0631
    -9.0046  -8.9914  -8.9627  -8.9238  -8.8768  -8.8633  -8.8546  -8.8136
    -8.7653  -8.7338  -8.6798  -8.6666  -8.6521  -8.5709  -8.5547  -8.4459
    -5.2811  -5.2666  -5.2575  -5.2436  -5.2320  -5.2275  -5.2100  -5.2076
    -5.1931  -5.1626  -5.1592  -5.1560  -5.1461  -5.1351  -5.1251  -5.1192
    -5.1167  -5.1146  -5.1069  -5.0977  -5.0924  -5.0599  -5.0429  -5.0360
    -4.0808  -3.9000  -3.8327  -3.7715  -3.6465  -3.5603  -3.5040  -3.3254
    -0.4335  -0.3794  -0.3480  -0.3239  -0.2791  -0.2302  -0.1721  -0.0608
    -0.0508   0.0196   0.0752   0.2713   0.3200   0.3514   0.3990   0.4196
     0.4355   0.4983   0.5332   0.5765   0.5861   0.6130   0.6683   0.6838
     0.8044   0.8684   0.8956   0.9098   0.9497   0.9779   1.0344   1.0644
     1.0722   1.1154   1.1434   1.1853   1.2247   1.2312   1.2818   1.2942
     1.3490   1.3946   1.4626   1.4814   1.5066   1.5697   1.6189   1.6399
     1.6716   1.7118   1.7316   1.7511   1.7638   1.7885   1.7966   1.8206
     1.8337   1.8486   1.8692   1.8947   1.9287   1.9375   1.9749   2.0017
     2.0535   2.0815   2.0980   2.1220   2.1771   2.2140   2.2701   2.3947

          k =-0.1250-0.1250 0.1250 (132670 PWs)   bands (ev):

   -18.5109 -18.4621 -18.4517 -18.4480 -18.4477 -18.4433 -18.4393 -18.4351
   -18.3903 -18.3639 -18.3489 -18.3257 -18.2613 -18.2353 -18.2245 -18.2191
   -18.2144 -18.2114 -18.2019 -18.1927 -18.1860 -18.1843 -18.1736 -18.1724
   -18.1713 -18.1681 -18.1657 -18.1637 -18.1615 -18.1593 -18.1542 -18.1510
   -18.1408 -18.1197 -18.1038 -18.1003 -18.0992 -18.0914 -18.0905 -18.0859
   -18.0856 -18.0779 -18.0770 -18.0649 -18.0605 -18.0504 -18.0428 -18.0403
    -9.4727  -9.3688  -9.3426  -9.1937  -9.1546  -9.0944  -9.0512  -9.0359
    -9.0101  -8.9923  -8.9729  -8.9321  -8.9121  -8.8797  -8.8689  -8.8539
    -8.7573  -8.7286  -8.6982  -8.6685  -8.6433  -8.5684  -8.5387  -8.4389
    -5.2814  -5.2665  -5.2582  -5.2438  -5.2322  -5.2276  -5.2100  -5.2072
    -5.1933  -5.1629  -5.1592  -5.1562  -5.1460  -5.1352  -5.1257  -5.1199
    -5.1164  -5.1141  -5.1057  -5.0972  -5.0927  -5.0597  -5.0431  -5.0358
    -4.4394  -3.9350  -3.9061  -3.8765  -3.3914  -3.3362  -3.3125  -2.7431
    -0.8115  -0.7147  -0.6647  -0.5798  -0.5592  -0.5426  -0.5015  -0.4635
    -0.4288  -0.3127  -0.2790  -0.2257   0.4041   0.4273   0.4691   0.5699
     0.6269   0.6856   0.7349   0.7614   0.8000   0.8923   0.9261   0.9629
     0.9878   1.0138   1.0412   1.0601   1.0863   1.1029   1.1458   1.1713
     1.1803   1.2213   1.2567   1.2837   1.2987   1.3455   1.3724   1.3938
     1.4207   1.4263   1.4538   1.4874   1.5004   1.5173   1.5347   1.5824
     1.5978   1.6104   1.6447   1.6597   1.6849   1.7117   1.7241   1.7477
     1.7566   1.8051   1.8312   1.9481   2.0129   2.0445   2.1046   2.1463
     2.1988   2.2278   2.2757   2.3427   2.6689   2.7465   2.8331   3.1855

          k =-0.1250 0.1250-0.1250 (132670 PWs)   bands (ev):

   -18.5109 -18.4621 -18.4517 -18.4480 -18.4477 -18.4433 -18.4393 -18.4351
   -18.3903 -18.3639 -18.3489 -18.3257 -18.2613 -18.2353 -18.2245 -18.2191
   -18.2144 -18.2114 -18.2019 -18.1927 -18.1860 -18.1843 -18.1736 -18.1724
   -18.1713 -18.1681 -18.1657 -18.1637 -18.1615 -18.1593 -18.1542 -18.1510
   -18.1408 -18.1197 -18.1038 -18.1003 -18.0992 -18.0914 -18.0905 -18.0859
   -18.0856 -18.0779 -18.0770 -18.0649 -18.0605 -18.0504 -18.0428 -18.0403
    -9.4728  -9.3698  -9.3407  -9.1991  -9.1459  -9.0974  -9.0523  -9.0420
    -9.0114  -8.9912  -8.9679  -8.9256  -8.9044  -8.8903  -8.8696  -8.8559
    -8.7599  -8.7278  -8.6954  -8.6677  -8.6450  -8.5679  -8.5387  -8.4390
    -5.2812  -5.2667  -5.2583  -5.2438  -5.2321  -5.2275  -5.2101  -5.2072
    -5.1933  -5.1626  -5.1595  -5.1562  -5.1463  -5.1349  -5.1257  -5.1199
    -5.1163  -5.1141  -5.1058  -5.0973  -5.0926  -5.0597  -5.0430  -5.0359
    -4.4395  -3.9331  -3.9118  -3.8716  -3.3783  -3.3686  -3.2932  -2.7441
    -0.8004  -0.7187  -0.6624  -0.5950  -0.5753  -0.5266  -0.5142  -0.4640
    -0.4064  -0.3057  -0.2806  -0.2356   0.4059   0.4225   0.4737   0.5778
     0.6280   0.6855   0.7373   0.7543   0.8115   0.8735   0.9202   0.9376
     0.9978   1.0070   1.0295   1.0613   1.0973   1.1458   1.1594   1.1780
     1.2088   1.2262   1.2348   1.2667   1.3015   1.3080   1.3589   1.3901
     1.4012   1.4380   1.4660   1.4906   1.5080   1.5177   1.5390   1.5818
     1.5941   1.6189   1.6446   1.6673   1.6796   1.7060   1.7256   1.7620
     1.7672   1.7932   1.8280   1.9475   2.0248   2.0513   2.0919   2.1580
     2.1803   2.2147   2.2684   2.3421   2.6761   2.7341   2.8444   3.2068

          k = 0.1250-0.1250-0.1250 (132670 PWs)   bands (ev):

   -18.5109 -18.4621 -18.4517 -18.4480 -18.4477 -18.4433 -18.4393 -18.4351
   -18.3903 -18.3639 -18.3489 -18.3257 -18.2613 -18.2353 -18.2245 -18.2191
   -18.2144 -18.2114 -18.2019 -18.1927 -18.1860 -18.1843 -18.1736 -18.1724
   -18.1713 -18.1681 -18.1657 -18.1637 -18.1615 -18.1593 -18.1542 -18.1510
   -18.1408 -18.1197 -18.1038 -18.1003 -18.0992 -18.0914 -18.0905 -18.0859
   -18.0856 -18.0779 -18.0770 -18.0649 -18.0605 -18.0504 -18.0428 -18.0403
    -9.4732  -9.3648  -9.3459  -9.1991  -9.1512  -9.0849  -9.0533  -9.0386
    -9.0132  -8.9980  -8.9723  -8.9266  -8.9109  -8.8795  -8.8699  -8.8544
    -8.7576  -8.7302  -8.6950  -8.6695  -8.6443  -8.5678  -8.5390  -8.4389
    -5.2814  -5.2667  -5.2581  -5.2438  -5.2322  -5.2276  -5.2101  -5.2073
    -5.1931  -5.1627  -5.1594  -5.1563  -5.1463  -5.1348  -5.1256  -5.1200
    -5.1164  -5.1141  -5.1058  -5.0973  -5.0926  -5.0598  -5.0430  -5.0358
    -4.4395  -3.9280  -3.9118  -3.8780  -3.3809  -3.3510  -3.3090  -2.7414
    -0.7965  -0.7534  -0.6488  -0.6092  -0.5713  -0.5244  -0.4881  -0.4656
    -0.3981  -0.3129  -0.2768  -0.2315   0.4034   0.4290   0.4721   0.5788
     0.6173   0.6812   0.7347   0.7504   0.7979   0.8845   0.9055   0.9463
     0.9810   1.0367   1.0443   1.0617   1.0972   1.1309   1.1397   1.1714
     1.2113   1.2269   1.2377   1.2754   1.3092   1.3344   1.3601   1.3888
     1.4160   1.4377   1.4592   1.4717   1.5021   1.5208   1.5409   1.5689
     1.6050   1.6159   1.6428   1.6620   1.6809   1.7031   1.7329   1.7482
     1.7707   1.8066   1.8367   1.9444   2.0046   2.0497   2.1013   2.1488
     2.1944   2.2196   2.2548   2.3427   2.6798   2.7404   2.8564   3.1927

          k =-0.1250-0.1250 0.3750 (132608 PWs)   bands (ev):

   -18.5109 -18.4621 -18.4517 -18.4480 -18.4477 -18.4433 -18.4393 -18.4351
   -18.3903 -18.3639 -18.3489 -18.3257 -18.2613 -18.2353 -18.2245 -18.2191
   -18.2144 -18.2114 -18.2019 -18.1927 -18.1860 -18.1843 -18.1736 -18.1724
   -18.1713 -18.1681 -18.1657 -18.1636 -18.1615 -18.1593 -18.1542 -18.1510
   -18.1408 -18.1197 -18.1038 -18.1003 -18.0992 -18.0914 -18.0905 -18.0859
   -18.0856 -18.0779 -18.0770 -18.0649 -18.0605 -18.0504 -18.0428 -18.0403
    -9.4461  -9.4008  -9.3353  -9.1882  -9.1611  -9.1215  -9.0609  -9.0209
    -9.0132  -8.9910  -8.9731  -8.9290  -8.9042  -8.8752  -8.8646  -8.8437
    -8.7584  -8.7306  -8.6863  -8.6690  -8.6557  -8.5682  -8.5374  -8.4435
    -5.2812  -5.2664  -5.2580  -5.2435  -5.2321  -5.2274  -5.2100  -5.2071
    -5.1929  -5.1632  -5.1594  -5.1561  -5.1459  -5.1353  -5.1258  -5.1202
    -5.1164  -5.1142  -5.1057  -5.0974  -5.0928  -5.0600  -5.0432  -5.0360
    -4.3089  -4.0889  -3.7971  -3.7539  -3.5635  -3.5057  -3.2070  -2.9616
    -0.7299  -0.6979  -0.6085  -0.5740  -0.5215  -0.4650  -0.4341  -0.3220
    -0.1546  -0.0913   0.0177   0.0912   0.3713   0.3988   0.4576   0.4979
     0.5186   0.5801   0.6117   0.6879   0.6935   0.7228   0.7716   0.7895
     0.8671   0.9019   0.9741   1.0049   1.0620   1.0757   1.1324   1.1697
     1.2185   1.2270   1.2384   1.2844   1.3002   1.3574   1.3745   1.3907
     1.3971   1.4224   1.4599   1.4804   1.5053   1.5265   1.5665   1.5871
     1.6156   1.6447   1.6660   1.6782   1.6941   1.7444   1.7689   1.7908
     1.8018   1.8143   1.8318   1.8856   1.9384   1.9925   2.0349   2.0780
     2.1099   2.1241   2.2672   2.3691   2.4361   2.5229   2.7923   2.9128

          k =-0.1250 0.1250-0.3750 (132608 PWs)   bands (ev):

   -18.5109 -18.4621 -18.4517 -18.4480 -18.4477 -18.4433 -18.4393 -18.4351
   -18.3903 -18.3639 -18.3489 -18.3257 -18.2613 -18.2353 -18.2245 -18.2191
   -18.2144 -18.2114 -18.2019 -18.1927 -18.1860 -18.1843 -18.1736 -18.1724
   -18.1713 -18.1681 -18.1657 -18.1637 -18.1615 -18.1593 -18.1542 -18.1510
   -18.1408 -18.1197 -18.1038 -18.1003 -18.0992 -18.0914 -18.0905 -18.0859
   -18.0856 -18.0779 -18.0770 -18.0649 -18.0605 -18.0504 -18.0428 -18.0403
    -9.4464  -9.4004  -9.3350  -9.1907  -9.1545  -9.1283  -9.0583  -9.0256
    -9.0111  -8.9896  -8.9752  -8.9203  -8.9039  -8.8774  -8.8661  -8.8467
    -8.7592  -8.7295  -8.6852  -8.6687  -8.6569  -8.5679  -8.5373  -8.4437
    -5.2811  -5.2666  -5.2581  -5.2435  -5.2320  -5.2273  -5.2100  -5.2070
    -5.1929  -5.1630  -5.1597  -5.1562  -5.1462  -5.1351  -5.1257  -5.1202
    -5.1163  -5.1142  -5.1057  -5.0975  -5.0927  -5.0600  -5.0432  -5.0360
    -4.3090  -4.0900  -3.7910  -3.7554  -3.5601  -3.5169  -3.1991  -2.9650
    -0.7374  -0.7011  -0.5950  -0.5802  -0.5133  -0.4539  -0.4240  -0.3244
    -0.1870  -0.1106   0.0261   0.0938   0.3815   0.4069   0.4617   0.4954
     0.5485   0.5700   0.6195   0.6653   0.6979   0.7270   0.7694   0.8024
     0.8517   0.8911   0.9654   0.9915   1.0614   1.0908   1.1456   1.1715
     1.2026   1.2202   1.2581   1.2848   1.3021   1.3236   1.3608   1.3904
     1.4192   1.4465   1.4586   1.4855   1.5073   1.5292   1.5464   1.5910
     1.6220   1.6405   1.6664   1.6896   1.7205   1.7347   1.7468   1.7736
     1.8011   1.8225   1.8424   1.8903   1.9416   1.9984   2.0434   2.0541
     2.1006   2.1432   2.2521   2.3381   2.4379   2.5189   2.7999   2.9543

          k = 0.1250-0.1250-0.3750 (132608 PWs)   bands (ev):

   -18.5109 -18.4621 -18.4517 -18.4480 -18.4477 -18.4433 -18.4393 -18.4351
   -18.3903 -18.3639 -18.3489 -18.3257 -18.2613 -18.2353 -18.2245 -18.2191
   -18.2144 -18.2114 -18.2019 -18.1927 -18.1860 -18.1843 -18.1736 -18.1724
   -18.1713 -18.1681 -18.1657 -18.1637 -18.1615 -18.1593 -18.1542 -18.1510
   -18.1408 -18.1197 -18.1038 -18.1003 -18.0992 -18.0914 -18.0905 -18.0859
   -18.0856 -18.0779 -18.0770 -18.0649 -18.0605 -18.0504 -18.0428 -18.0403
    -9.4475  -9.3973  -9.3373  -9.1911  -9.1624  -9.1152  -9.0576  -9.0233
    -9.0138  -8.9925  -8.9796  -8.9233  -8.9050  -8.8748  -8.8642  -8.8434
    -8.7581  -8.7311  -8.6848  -8.6708  -8.6560  -8.5677  -8.5375  -8.4435
    -5.2812  -5.2666  -5.2580  -5.2434  -5.2321  -5.2274  -5.2100  -5.2071
    -5.1927  -5.1630  -5.1595  -5.1562  -5.1462  -5.1350  -5.1257  -5.1202
    -5.1164  -5.1142  -5.1058  -5.0975  -5.0928  -5.0600  -5.0431  -5.0360
    -4.3090  -4.0890  -3.7828  -3.7689  -3.5595  -3.5089  -3.2089  -2.9589
    -0.7363  -0.7014  -0.6176  -0.5747  -0.5198  -0.4545  -0.4282  -0.3217
    -0.1526  -0.0844   0.0177   0.0980   0.3724   0.3924   0.4527   0.4786
     0.5420   0.5833   0.6153   0.6613   0.6950   0.7115   0.7728   0.8155
     0.8698   0.8891   0.9583   0.9902   1.0494   1.1084   1.1430   1.1794
     1.1915   1.2369   1.2560   1.2908   1.3120   1.3358   1.3628   1.3910
     1.4054   1.4290   1.4515   1.4852   1.5016   1.5249   1.5710   1.5832
     1.6282   1.6513   1.6686   1.6792   1.6978   1.7343   1.7740   1.7928
     1.8073   1.8176   1.8224   1.8708   1.9259   2.0082   2.0359   2.0686
     2.1056   2.1371   2.2370   2.3624   2.4265   2.5313   2.8167   2.9321

          k = 0.3750-0.1250 0.1250 (132608 PWs)   bands (ev):

   -18.5109 -18.4621 -18.4517 -18.4480 -18.4477 -18.4433 -18.4393 -18.4351
   -18.3903 -18.3639 -18.3489 -18.3257 -18.2613 -18.2353 -18.2245 -18.2191
   -18.2144 -18.2114 -18.2019 -18.1927 -18.1860 -18.1843 -18.1736 -18.1724
   -18.1713 -18.1681 -18.1657 -18.1637 -18.1615 -18.1593 -18.1542 -18.1510
   -18.1408 -18.1197 -18.1038 -18.1002 -18.0993 -18.0914 -18.0905 -18.0859
   -18.0856 -18.0779 -18.0770 -18.0649 -18.0605 -18.0504 -18.0428 -18.0403
    -9.4649  -9.3691  -9.3368  -9.2149  -9.1438  -9.1089  -9.0624  -9.0435
    -9.0153  -8.9950  -8.9574  -8.9172  -8.8984  -8.8954  -8.8800  -8.8345
    -8.7581  -8.7311  -8.6818  -8.6592  -8.6511  -8.5645  -8.5523  -8.4424
    -5.2810  -5.2665  -5.2581  -5.2436  -5.2319  -5.2272  -5.2101  -5.2075
    -5.1936  -5.1623  -5.1593  -5.1562  -5.1463  -5.1349  -5.1247  -5.1201
    -5.1173  -5.1147  -5.1058  -5.0979  -5.0925  -5.0598  -5.0430  -5.0360
    -4.3266  -4.0649  -3.8020  -3.7833  -3.5459  -3.4950  -3.2106  -2.9320
    -0.7719  -0.6884  -0.6054  -0.5943  -0.5542  -0.5051  -0.4310  -0.3653
    -0.1670  -0.0472   0.0016   0.0828   0.4205   0.4451   0.4834   0.5118
     0.5342   0.5807   0.6258   0.6701   0.6913   0.7144   0.7833   0.8082
     0.8969   0.9198   0.9851   1.0405   1.0591   1.0886   1.1148   1.1478
     1.1665   1.2042   1.2165   1.2514   1.2774   1.3046   1.3366   1.3696
     1.4067   1.4552   1.4666   1.4985   1.5180   1.5525   1.5792   1.6036
     1.6267   1.6421   1.6666   1.6757   1.7090   1.7324   1.7422   1.7829
     1.8061   1.8381   1.8934   1.9083   1.9666   2.0040   2.0245   2.0791
     2.0977   2.1475   2.2319   2.2956   2.4701   2.5238   2.7798   2.9622

          k =-0.3750-0.1250-0.1250 (132608 PWs)   bands (ev):

   -18.5109 -18.4621 -18.4517 -18.4480 -18.4477 -18.4433 -18.4393 -18.4351
   -18.3903 -18.3639 -18.3489 -18.3257 -18.2613 -18.2353 -18.2245 -18.2191
   -18.2144 -18.2114 -18.2019 -18.1927 -18.1860 -18.1843 -18.1736 -18.1724
   -18.1713 -18.1681 -18.1657 -18.1637 -18.1615 -18.1593 -18.1542 -18.1510
   -18.1408 -18.1197 -18.1038 -18.1002 -18.0993 -18.0914 -18.0905 -18.0859
   -18.0856 -18.0779 -18.0770 -18.0649 -18.0605 -18.0504 -18.0428 -18.0403
    -9.4655  -9.3638  -9.3424  -9.2115  -9.1502  -9.1078  -9.0605  -9.0380
    -9.0168  -8.9944  -8.9606  -8.9171  -8.9055  -8.8944  -8.8781  -8.8309
    -8.7551  -8.7326  -8.6853  -8.6586  -8.6497  -8.5651  -8.5518  -8.4424
    -5.2811  -5.2663  -5.2581  -5.2435  -5.2319  -5.2273  -5.2101  -5.2076
    -5.1935  -5.1625  -5.1592  -5.1561  -5.1462  -5.1352  -5.1247  -5.1202
    -5.1172  -5.1146  -5.1058  -5.0978  -5.0925  -5.0598  -5.0430  -5.0360
    -4.3265  -4.0660  -3.8019  -3.7793  -3.5460  -3.4996  -3.2091  -2.9323
    -0.7384  -0.7144  -0.6195  -0.5702  -0.5496  -0.5284  -0.4235  -0.3645
    -0.1698  -0.0725   0.0035   0.0859   0.4209   0.4463   0.4890   0.5047
     0.5460   0.5778   0.6395   0.6714   0.6964   0.7109   0.7829   0.8223
     0.8808   0.9279   0.9706   1.0302   1.0772   1.0891   1.1144   1.1341
     1.1504   1.1906   1.2205   1.2714   1.2961   1.3391   1.3458   1.3691
     1.4072   1.4213   1.4536   1.4832   1.5249   1.5517   1.5890   1.6093
     1.6209   1.6414   1.6660   1.6763   1.7067   1.7363   1.7452   1.7835
     1.8033   1.8284   1.8706   1.9270   1.9488   2.0032   2.0248   2.0784
     2.1152   2.1684   2.2546   2.2929   2.4523   2.5088   2.7636   2.9695

          k = 0.3750 0.1250-0.1250 (132608 PWs)   bands (ev):

   -18.5109 -18.4621 -18.4517 -18.4480 -18.4477 -18.4433 -18.4393 -18.4351
   -18.3903 -18.3639 -18.3489 -18.3257 -18.2613 -18.2353 -18.2245 -18.2191
   -18.2144 -18.2114 -18.2019 -18.1927 -18.1860 -18.1843 -18.1736 -18.1724
   -18.1713 -18.1681 -18.1657 -18.1636 -18.1615 -18.1593 -18.1542 -18.1510
   -18.1408 -18.1197 -18.1038 -18.1002 -18.0993 -18.0914 -18.0905 -18.0859
   -18.0856 -18.0779 -18.0770 -18.0649 -18.0605 -18.0504 -18.0428 -18.0403
    -9.4648  -9.3681  -9.3390  -9.2106  -9.1524  -9.1050  -9.0575  -9.0417
    -9.0157  -8.9953  -8.9618  -8.9233  -8.9069  -8.8878  -8.8739  -8.8334
    -8.7551  -8.7318  -8.6875  -8.6560  -8.6506  -8.5652  -8.5521  -8.4423
    -5.2811  -5.2663  -5.2581  -5.2435  -5.2319  -5.2273  -5.2100  -5.2075
    -5.1936  -5.1626  -5.1591  -5.1562  -5.1460  -5.1352  -5.1247  -5.1201
    -5.1173  -5.1147  -5.1058  -5.0978  -5.0925  -5.0598  -5.0431  -5.0359
    -4.3264  -4.0650  -3.7999  -3.7872  -3.5470  -3.4897  -3.2150  -2.9299
    -0.7752  -0.6951  -0.6140  -0.5753  -0.5495  -0.5163  -0.4177  -0.3647
    -0.1590  -0.0729   0.0010   0.0925   0.4229   0.4609   0.4743   0.4938
     0.5381   0.5742   0.6243   0.6611   0.7044   0.7262   0.7938   0.8092
     0.8670   0.9332   0.9898   1.0406   1.0694   1.0922   1.1096   1.1318
     1.1599   1.1956   1.2367   1.2646   1.2841   1.3010   1.3388   1.3536
     1.4058   1.4485   1.4669   1.4903   1.5251   1.5506   1.5750   1.6010
     1.6315   1.6393   1.6684   1.6794   1.7148   1.7339   1.7535   1.7778
     1.8104   1.8325   1.8758   1.9221   1.9409   1.9929   2.0280   2.0993
     2.1090   2.1594   2.2391   2.2883   2.4648   2.5297   2.7734   2.9516

          k =-0.3750 0.1250 0.1250 (132608 PWs)   bands (ev):

   -18.5109 -18.4621 -18.4517 -18.4480 -18.4477 -18.4433 -18.4393 -18.4351
   -18.3903 -18.3639 -18.3489 -18.3257 -18.2613 -18.2353 -18.2245 -18.2191
   -18.2144 -18.2114 -18.2019 -18.1927 -18.1860 -18.1843 -18.1736 -18.1724
   -18.1713 -18.1681 -18.1657 -18.1637 -18.1615 -18.1593 -18.1542 -18.1510
   -18.1408 -18.1197 -18.1038 -18.1002 -18.0993 -18.0914 -18.0905 -18.0859
   -18.0856 -18.0779 -18.0770 -18.0649 -18.0605 -18.0504 -18.0428 -18.0403
    -9.4653  -9.3649  -9.3414  -9.2143  -9.1482  -9.1039  -9.0574  -9.0388
    -9.0214  -8.9992  -8.9588  -8.9195  -8.9081  -8.8866  -8.8768  -8.8322
    -8.7549  -8.7340  -8.6839  -8.6576  -8.6516  -8.5643  -8.5527  -8.4423
    -5.2811  -5.2665  -5.2580  -5.2435  -5.2319  -5.2273  -5.2101  -5.2076
    -5.1935  -5.1624  -5.1592  -5.1562  -5.1463  -5.1348  -5.1246  -5.1202
    -5.1174  -5.1146  -5.1058  -5.0979  -5.0925  -5.0599  -5.0430  -5.0360
    -4.3264  -4.0641  -3.8098  -3.7789  -3.5333  -3.5035  -3.2162  -2.9275
    -0.7543  -0.7310  -0.6085  -0.5804  -0.5472  -0.5252  -0.4055  -0.3675
    -0.1540  -0.0477   0.0030   0.0944   0.4201   0.4565   0.4768   0.4952
     0.5297   0.5876   0.6066   0.6565   0.6874   0.7201   0.7703   0.8095
     0.8845   0.9398   0.9861   1.0326   1.0695   1.1019   1.1161   1.1419
     1.1816   1.1882   1.2209   1.2544   1.2919   1.3262   1.3439   1.3775
     1.4055   1.4414   1.4490   1.4802   1.5212   1.5505   1.5766   1.6086
     1.6173   1.6368   1.6598   1.6769   1.7167   1.7276   1.7587   1.7775
     1.8136   1.8471   1.8886   1.9193   1.9477   1.9909   2.0286   2.0819
     2.0985   2.1566   2.2335   2.2818   2.4751   2.5377   2.7807   2.9526

          k =-0.1250 0.3750 0.1250 (132608 PWs)   bands (ev):

   -18.5109 -18.4621 -18.4517 -18.4480 -18.4477 -18.4433 -18.4393 -18.4351
   -18.3903 -18.3639 -18.3489 -18.3257 -18.2613 -18.2353 -18.2245 -18.2191
   -18.2144 -18.2114 -18.2019 -18.1927 -18.1860 -18.1843 -18.1736 -18.1724
   -18.1713 -18.1681 -18.1657 -18.1637 -18.1615 -18.1593 -18.1542 -18.1510
   -18.1408 -18.1197 -18.1038 -18.1003 -18.0992 -18.0914 -18.0905 -18.0859
   -18.0856 -18.0779 -18.0770 -18.0649 -18.0605 -18.0504 -18.0428 -18.0403
    -9.4563  -9.3797  -9.3452  -9.1927  -9.1512  -9.0992  -9.0714  -9.0452
    -9.0239  -9.0041  -8.9676  -8.9270  -8.9010  -8.8666  -8.8617  -8.8202
    -8.7711  -8.7287  -8.6943  -8.6662  -8.6458  -8.5751  -8.5441  -8.4394
    -5.2812  -5.2666  -5.2574  -5.2439  -5.2321  -5.2277  -5.2102  -5.2072
    -5.1930  -5.1621  -5.1591  -5.1560  -5.1464  -5.1351  -5.1259  -5.1187
    -5.1161  -5.1146  -5.1072  -5.0978  -5.0930  -5.0598  -5.0430  -5.0360
    -4.3139  -4.0802  -3.8012  -3.7587  -3.5439  -3.5152  -3.2143  -2.9603
    -0.7877  -0.6741  -0.5845  -0.5637  -0.5331  -0.4424  -0.3608  -0.3447
    -0.1655  -0.1029  -0.0430   0.1080   0.3481   0.4443   0.4730   0.5038
     0.5461   0.5795   0.6009   0.6575   0.6684   0.7149   0.7888   0.8046
     0.8400   0.8854   0.9524   1.0144   1.0435   1.1000   1.1408   1.1567
     1.1961   1.2315   1.2601   1.2645   1.3132   1.3270   1.3521   1.4002
     1.4148   1.4368   1.4769   1.5054   1.5290   1.5487   1.5672   1.5914
     1.6026   1.6418   1.6662   1.6881   1.6991   1.7315   1.7574   1.7724
     1.7861   1.8100   1.8404   1.8553   1.9037   1.9687   2.0308   2.0546
     2.1283   2.2136   2.2528   2.3548   2.4598   2.5887   2.7667   2.9477

          k =-0.1250-0.3750-0.1250 (132608 PWs)   bands (ev):

   -18.5109 -18.4621 -18.4517 -18.4480 -18.4477 -18.4433 -18.4393 -18.4351
   -18.3903 -18.3639 -18.3489 -18.3257 -18.2613 -18.2353 -18.2245 -18.2191
   -18.2144 -18.2114 -18.2019 -18.1927 -18.1860 -18.1843 -18.1736 -18.1724
   -18.1713 -18.1681 -18.1657 -18.1637 -18.1615 -18.1593 -18.1542 -18.1510
   -18.1408 -18.1197 -18.1038 -18.1003 -18.0992 -18.0914 -18.0905 -18.0859
   -18.0856 -18.0779 -18.0770 -18.0649 -18.0605 -18.0504 -18.0428 -18.0403
    -9.4565  -9.3792  -9.3460  -9.1833  -9.1611  -9.1003  -9.0789  -9.0422
    -9.0138  -9.0034  -8.9684  -8.9250  -8.9056  -8.8732  -8.8593  -8.8178
    -8.7698  -8.7283  -8.6951  -8.6670  -8.6452  -8.5752  -8.5438  -8.4395
    -5.2812  -5.2664  -5.2575  -5.2439  -5.2321  -5.2277  -5.2102  -5.2072
    -5.1930  -5.1623  -5.1591  -5.1559  -5.1462  -5.1356  -5.1259  -5.1189
    -5.1159  -5.1147  -5.1070  -5.0977  -5.0930  -5.0597  -5.0430  -5.0361
    -4.3139  -4.0809  -3.8016  -3.7554  -3.5558  -3.5041  -3.2134  -2.9638
    -0.7526  -0.6641  -0.5979  -0.5661  -0.5398  -0.4512  -0.3835  -0.3481
    -0.1683  -0.1118  -0.0440   0.1107   0.3555   0.4421   0.4801   0.5029
     0.5441   0.5865   0.6085   0.6595   0.6855   0.7398   0.7611   0.7944
     0.8545   0.9043   0.9503   0.9855   1.0397   1.1045   1.1209   1.1596
     1.2077   1.2378   1.2528   1.2882   1.3064   1.3305   1.3493   1.3736
     1.4087   1.4291   1.4644   1.4983   1.5415   1.5544   1.5782   1.6086
     1.6255   1.6337   1.6555   1.6759   1.7085   1.7325   1.7492   1.7610
     1.7805   1.8024   1.8340   1.8596   1.9112   1.9858   2.0320   2.0680
     2.1447   2.2017   2.2558   2.3737   2.4702   2.5461   2.7291   2.9613

          k = 0.1250 0.3750-0.1250 (132608 PWs)   bands (ev):

   -18.5109 -18.4621 -18.4517 -18.4480 -18.4477 -18.4433 -18.4393 -18.4351
   -18.3903 -18.3639 -18.3489 -18.3257 -18.2613 -18.2353 -18.2245 -18.2191
   -18.2144 -18.2114 -18.2019 -18.1927 -18.1860 -18.1843 -18.1736 -18.1724
   -18.1713 -18.1681 -18.1657 -18.1637 -18.1615 -18.1593 -18.1542 -18.1510
   -18.1408 -18.1197 -18.1038 -18.1003 -18.0992 -18.0914 -18.0905 -18.0859
   -18.0856 -18.0779 -18.0770 -18.0649 -18.0605 -18.0504 -18.0428 -18.0403
    -9.4555  -9.3832  -9.3429  -9.1837  -9.1599  -9.1062  -9.0644  -9.0493
    -9.0199  -9.0017  -8.9663  -8.9294  -8.9032  -8.8673  -8.8593  -8.8223
    -8.7692  -8.7280  -8.6969  -8.6653  -8.6447  -8.5758  -8.5439  -8.4394
    -5.2812  -5.2664  -5.2575  -5.2439  -5.2322  -5.2276  -5.2102  -5.2071
    -5.1932  -5.1623  -5.1590  -5.1559  -5.1460  -5.1356  -5.1259  -5.1188
    -5.1161  -5.1147  -5.1070  -5.0977  -5.0930  -5.0598  -5.0431  -5.0359
    -4.3135  -4.0817  -3.7989  -3.7583  -3.5489  -3.5130  -3.2098  -2.9640
    -0.7937  -0.6505  -0.5884  -0.5610  -0.5304  -0.4214  -0.3929  -0.3446
    -0.1744  -0.1212  -0.0376   0.0954   0.3568   0.4501   0.4743   0.5139
     0.5458   0.5840   0.6104   0.6496   0.6778   0.7253   0.7740   0.8011
     0.8530   0.8927   0.9587   1.0186   1.0376   1.0783   1.1189   1.1329
     1.2078   1.2373   1.2642   1.2795   1.3076   1.3439   1.3504   1.3895
     1.4204   1.4337   1.4724   1.4962   1.5228   1.5573   1.5793   1.5939
     1.6127   1.6341   1.6652   1.6742   1.6992   1.7228   1.7522   1.7700
     1.7979   1.8069   1.8376   1.8552   1.8947   1.9882   2.0288   2.0627
     2.1467   2.2142   2.2549   2.3593   2.4568   2.5682   2.7621   2.9450

          k = 0.1250-0.3750 0.1250 (132608 PWs)   bands (ev):

   -18.5109 -18.4621 -18.4517 -18.4480 -18.4477 -18.4433 -18.4393 -18.4351
   -18.3903 -18.3639 -18.3489 -18.3257 -18.2613 -18.2353 -18.2245 -18.2191
   -18.2144 -18.2114 -18.2019 -18.1927 -18.1860 -18.1843 -18.1736 -18.1724
   -18.1713 -18.1681 -18.1657 -18.1637 -18.1615 -18.1593 -18.1542 -18.1510
   -18.1408 -18.1197 -18.1038 -18.1003 -18.0992 -18.0914 -18.0905 -18.0859
   -18.0856 -18.0779 -18.0770 -18.0649 -18.0605 -18.0504 -18.0428 -18.0403
    -9.4555  -9.3840  -9.3415  -9.1893  -9.1500  -9.1064  -9.0803  -9.0444
    -9.0127  -9.0027  -8.9661  -8.9249  -8.9033  -8.8719  -8.8602  -8.8212
    -8.7712  -8.7275  -8.6948  -8.6645  -8.6469  -8.5752  -8.5439  -8.4395
    -5.2811  -5.2666  -5.2575  -5.2440  -5.2321  -5.2275  -5.2102  -5.2071
    -5.1932  -5.1620  -5.1593  -5.1560  -5.1463  -5.1353  -5.1259  -5.1187
    -5.1160  -5.1147  -5.1072  -5.0977  -5.0929  -5.0597  -5.0431  -5.0360
    -4.3137  -4.0806  -3.8086  -3.7497  -3.5560  -3.5027  -3.2134  -2.9638
    -0.7650  -0.6668  -0.6012  -0.5559  -0.5491  -0.4395  -0.3813  -0.3448
    -0.1656  -0.1020  -0.0364   0.1000   0.3507   0.4468   0.4816   0.5026
     0.5540   0.5786   0.6164   0.6530   0.6663   0.7220   0.7714   0.8187
     0.8315   0.8927   0.9618   1.0113   1.0154   1.1149   1.1377   1.1626
     1.1918   1.2192   1.2545   1.2794   1.3111   1.3216   1.3562   1.3747
     1.4059   1.4357   1.4738   1.5162   1.5302   1.5554   1.5714   1.6008
     1.6054   1.6462   1.6550   1.6818   1.7010   1.7285   1.7490   1.7780
     1.7870   1.8175   1.8362   1.8634   1.9156   1.9853   2.0310   2.0569
     2.1200   2.2025   2.2606   2.3496   2.4634   2.5960   2.7291   2.9590

          k =-0.1250-0.3750 0.3750 (132616 PWs)   bands (ev):

   -18.5109 -18.4621 -18.4517 -18.4480 -18.4477 -18.4433 -18.4393 -18.4351
   -18.3903 -18.3639 -18.3489 -18.3257 -18.2613 -18.2353 -18.2245 -18.2191
   -18.2144 -18.2114 -18.2019 -18.1927 -18.1860 -18.1843 -18.1736 -18.1724
   -18.1713 -18.1681 -18.1657 -18.1637 -18.1615 -18.1593 -18.1542 -18.1510
   -18.1408 -18.1197 -18.1038 -18.1003 -18.0992 -18.0914 -18.0905 -18.0859
   -18.0856 -18.0779 -18.0770 -18.0649 -18.0605 -18.0504 -18.0428 -18.0403
    -9.4313  -9.3913  -9.3553  -9.2067  -9.1441  -9.1106  -9.0787  -9.0493
    -9.0242  -8.9934  -8.9715  -8.9299  -8.8837  -8.8650  -8.8530  -8.8239
    -8.7649  -8.7302  -8.6877  -8.6672  -8.6553  -8.5756  -8.5412  -8.4441
    -5.2811  -5.2664  -5.2574  -5.2437  -5.2322  -5.2276  -5.2101  -5.2072
    -5.1931  -5.1627  -5.1591  -5.1560  -5.1458  -5.1355  -5.1258  -5.1188
    -5.1159  -5.1147  -5.1069  -5.0977  -5.0932  -5.0600  -5.0430  -5.0360
    -4.1844  -3.9724  -3.9477  -3.7333  -3.6209  -3.4331  -3.3637  -3.1648
    -0.6999  -0.5900  -0.5475  -0.4557  -0.3227  -0.2136  -0.1877  -0.1580
    -0.0765  -0.0407   0.0254   0.1956   0.3023   0.3747   0.4194   0.4639
     0.4861   0.5432   0.5806   0.6191   0.6469   0.6538   0.7181   0.7416
     0.7893   0.8404   0.8660   0.9211   0.9691   1.0222   1.0930   1.1128
     1.1434   1.1828   1.2075   1.2598   1.2798   1.3024   1.3171   1.3735
     1.3904   1.4171   1.4504   1.5030   1.5185   1.5532   1.5614   1.6038
     1.6538   1.6714   1.7006   1.7099   1.7438   1.7575   1.7779   1.8074
     1.8160   1.8332   1.8431   1.8759   1.9121   1.9287   2.0048   2.0176
     2.0502   2.0900   2.1328   2.2440   2.3487   2.5103   2.5560   2.6785

          k =-0.1250 0.3750-0.3750 (132616 PWs)   bands (ev):

   -18.5109 -18.4621 -18.4517 -18.4480 -18.4477 -18.4433 -18.4393 -18.4351
   -18.3903 -18.3639 -18.3489 -18.3257 -18.2613 -18.2353 -18.2245 -18.2191
   -18.2144 -18.2114 -18.2019 -18.1927 -18.1860 -18.1843 -18.1736 -18.1724
   -18.1713 -18.1681 -18.1657 -18.1637 -18.1615 -18.1593 -18.1542 -18.1510
   -18.1408 -18.1197 -18.1038 -18.1003 -18.0992 -18.0914 -18.0905 -18.0859
   -18.0856 -18.0779 -18.0770 -18.0649 -18.0605 -18.0504 -18.0428 -18.0403
    -9.4314  -9.3912  -9.3552  -9.2052  -9.1445  -9.1127  -9.0821  -9.0499
    -9.0159  -8.9946  -8.9745  -8.9258  -8.8831  -8.8682  -8.8551  -8.8223
    -8.7658  -8.7292  -8.6871  -8.6660  -8.6576  -8.5751  -8.5410  -8.4442
    -5.2810  -5.2666  -5.2574  -5.2438  -5.2321  -5.2275  -5.2102  -5.2072
    -5.1931  -5.1624  -5.1594  -5.1560  -5.1461  -5.1352  -5.1258  -5.1187
    -5.1159  -5.1146  -5.1071  -5.0977  -5.0931  -5.0600  -5.0430  -5.0361
    -4.1844  -3.9716  -3.9498  -3.7309  -3.6208  -3.4368  -3.3591  -3.1670
    -0.6876  -0.5970  -0.5547  -0.4378  -0.3350  -0.2378  -0.1918  -0.1433
    -0.0924  -0.0355   0.0333   0.2066   0.3069   0.3777   0.4212   0.4798
     0.4942   0.5416   0.5843   0.6055   0.6374   0.6760   0.6997   0.7349
     0.7887   0.8333   0.8527   0.9234   0.9892   1.0244   1.0731   1.1164
     1.1472   1.1812   1.2082   1.2348   1.2572   1.3048   1.3400   1.3691
     1.4037   1.4385   1.4548   1.5061   1.5131   1.5441   1.5733   1.5949
     1.6529   1.6649   1.6986   1.7218   1.7295   1.7560   1.7866   1.8019
     1.8157   1.8462   1.8571   1.8814   1.9319   1.9419   1.9892   2.0101
     2.0375   2.0729   2.1243   2.2380   2.3612   2.4613   2.5687   2.7182

          k = 0.1250-0.3750-0.3750 (132616 PWs)   bands (ev):

   -18.5109 -18.4621 -18.4517 -18.4480 -18.4477 -18.4433 -18.4393 -18.4351
   -18.3903 -18.3639 -18.3489 -18.3257 -18.2613 -18.2353 -18.2245 -18.2191
   -18.2144 -18.2114 -18.2019 -18.1927 -18.1860 -18.1843 -18.1736 -18.1724
   -18.1713 -18.1681 -18.1657 -18.1637 -18.1615 -18.1593 -18.1542 -18.1510
   -18.1408 -18.1197 -18.1038 -18.1003 -18.0992 -18.0914 -18.0905 -18.0859
   -18.0856 -18.0779 -18.0770 -18.0649 -18.0605 -18.0504 -18.0428 -18.0403
    -9.4338  -9.3821  -9.3620  -9.2084  -9.1477  -9.0945  -9.0854  -9.0520
    -9.0234  -8.9956  -8.9744  -8.9278  -8.8828  -8.8604  -8.8594  -8.8209
    -8.7654  -8.7304  -8.6863  -8.6694  -8.6553  -8.5750  -8.5413  -8.4441
    -5.2811  -5.2666  -5.2573  -5.2437  -5.2321  -5.2277  -5.2102  -5.2073
    -5.1930  -5.1624  -5.1592  -5.1561  -5.1461  -5.1351  -5.1258  -5.1187
    -5.1160  -5.1146  -5.1071  -5.0977  -5.0931  -5.0601  -5.0430  -5.0360
    -4.1850  -3.9773  -3.9378  -3.7443  -3.6112  -3.4260  -3.3798  -3.1583
    -0.7003  -0.5995  -0.5632  -0.4400  -0.3032  -0.2520  -0.1959  -0.1208
    -0.0861  -0.0159   0.0367   0.2212   0.2698   0.3739   0.3988   0.4397
     0.5052   0.5549   0.5854   0.6213   0.6316   0.6574   0.6889   0.7606
     0.7804   0.8421   0.8627   0.9157   0.9641   1.0578   1.0868   1.1202
     1.1532   1.1811   1.2080   1.2279   1.2648   1.3051   1.3330   1.3794
     1.3987   1.4163   1.4698   1.4909   1.5213   1.5449   1.5845   1.6142
     1.6358   1.6761   1.7072   1.7222   1.7350   1.7484   1.7745   1.7985
     1.8197   1.8296   1.8450   1.8637   1.9145   1.9324   1.9935   2.0221
     2.0466   2.0892   2.1137   2.2518   2.3446   2.4867   2.5841   2.7016

          k = 0.3750 0.1250-0.3750 (132616 PWs)   bands (ev):

   -18.5109 -18.4621 -18.4517 -18.4480 -18.4477 -18.4433 -18.4393 -18.4351
   -18.3903 -18.3639 -18.3489 -18.3257 -18.2613 -18.2353 -18.2245 -18.2191
   -18.2144 -18.2114 -18.2019 -18.1927 -18.1860 -18.1843 -18.1736 -18.1724
   -18.1713 -18.1681 -18.1657 -18.1637 -18.1615 -18.1593 -18.1542 -18.1510
   -18.1408 -18.1197 -18.1038 -18.1002 -18.0993 -18.0914 -18.0905 -18.0859
   -18.0856 -18.0779 -18.0770 -18.0649 -18.0605 -18.0504 -18.0428 -18.0403
    -9.4395  -9.3963  -9.3327  -9.1943  -9.1727  -9.1360  -9.0642  -9.0248
    -9.0146  -8.9912  -8.9659  -8.9282  -8.9034  -8.8751  -8.8567  -8.8318
    -8.7576  -8.7347  -8.6819  -8.6636  -8.6497  -8.5657  -8.5520  -8.4454
    -5.2811  -5.2663  -5.2580  -5.2434  -5.2321  -5.2273  -5.2101  -5.2075
    -5.1933  -5.1628  -5.1589  -5.1559  -5.1457  -5.1354  -5.1248  -5.1202
    -5.1175  -5.1146  -5.1056  -5.0979  -5.0925  -5.0600  -5.0432  -5.0359
    -4.1991  -3.9941  -3.9092  -3.7195  -3.6662  -3.4149  -3.3631  -3.1286
    -0.7035  -0.6387  -0.5845  -0.4900  -0.3833  -0.2567  -0.2005  -0.1423
    -0.0371   0.0280   0.0783   0.1668   0.3053   0.3741   0.4259   0.4655
     0.4942   0.5493   0.5826   0.5920   0.6334   0.7062   0.7230   0.7756
     0.7980   0.8643   0.8945   0.9563   0.9768   1.0037   1.0374   1.0776
     1.1341   1.1667   1.2033   1.2454   1.2693   1.2923   1.3116   1.3816
     1.4136   1.4296   1.4534   1.4913   1.5144   1.5508   1.5794   1.6118
     1.6564   1.6877   1.6952   1.7107   1.7271   1.7459   1.7663   1.8021
     1.8320   1.8511   1.8836   1.9026   1.9356   1.9626   2.0115   2.0424
     2.0628   2.1032   2.1387   2.2607   2.2864   2.4280   2.5402   2.6353

          k =-0.3750-0.1250-0.3750 (132616 PWs)   bands (ev):

   -18.5109 -18.4621 -18.4517 -18.4480 -18.4477 -18.4433 -18.4393 -18.4351
   -18.3903 -18.3639 -18.3489 -18.3257 -18.2613 -18.2353 -18.2245 -18.2191
   -18.2144 -18.2114 -18.2019 -18.1927 -18.1860 -18.1843 -18.1736 -18.1724
   -18.1713 -18.1681 -18.1657 -18.1637 -18.1615 -18.1593 -18.1542 -18.1510
   -18.1408 -18.1197 -18.1038 -18.1002 -18.0993 -18.0914 -18.0905 -18.0859
   -18.0856 -18.0779 -18.0770 -18.0649 -18.0605 -18.0504 -18.0428 -18.0403
    -9.4414  -9.3924  -9.3347  -9.1970  -9.1661  -9.1416  -9.0604  -9.0340
    -9.0114  -8.9862  -8.9654  -8.9242  -8.9066  -8.8730  -8.8652  -8.8283
    -8.7571  -8.7350  -8.6787  -8.6676  -8.6489  -8.5656  -8.5517  -8.4455
    -5.2811  -5.2663  -5.2581  -5.2434  -5.2320  -5.2273  -5.2101  -5.2076
    -5.1931  -5.1628  -5.1590  -5.1559  -5.1459  -5.1354  -5.1248  -5.1204
    -5.1174  -5.1145  -5.1056  -5.0979  -5.0925  -5.0599  -5.0432  -5.0360
    -4.1988  -4.0049  -3.8924  -3.7154  -3.6737  -3.4441  -3.3312  -3.1346
    -0.6980  -0.6329  -0.5788  -0.4994  -0.3370  -0.2820  -0.1942  -0.1667
    -0.1097   0.0313   0.0787   0.1826   0.3350   0.3939   0.4226   0.4836
     0.5046   0.5470   0.5808   0.6009   0.6429   0.6731   0.7248   0.7601
     0.8143   0.8562   0.9154   0.9501   0.9705   0.9994   1.0189   1.0867
     1.1065   1.1660   1.2123   1.2479   1.2546   1.3164   1.3480   1.3767
     1.3865   1.4411   1.4677   1.4865   1.5121   1.5351   1.5704   1.6327
     1.6575   1.6683   1.6973   1.7083   1.7335   1.7525   1.7765   1.8049
     1.8197   1.8469   1.8630   1.9116   1.9421   1.9676   2.0207   2.0371
     2.0633   2.1192   2.1378   2.2317   2.2953   2.4145   2.5077   2.6753

          k = 0.3750-0.1250 0.3750 (132616 PWs)   bands (ev):

   -18.5109 -18.4621 -18.4517 -18.4480 -18.4477 -18.4433 -18.4393 -18.4351
   -18.3903 -18.3639 -18.3489 -18.3257 -18.2613 -18.2353 -18.2245 -18.2191
   -18.2144 -18.2114 -18.2019 -18.1927 -18.1860 -18.1843 -18.1736 -18.1724
   -18.1713 -18.1681 -18.1657 -18.1637 -18.1615 -18.1593 -18.1542 -18.1510
   -18.1408 -18.1197 -18.1038 -18.1002 -18.0993 -18.0914 -18.0905 -18.0859
   -18.0856 -18.0779 -18.0770 -18.0649 -18.0605 -18.0504 -18.0428 -18.0403
    -9.4399  -9.3959  -9.3323  -9.1988  -9.1614  -9.1449  -9.0619  -9.0289
    -9.0111  -8.9953  -8.9631  -8.9226  -8.9019  -8.8757  -8.8614  -8.8330
    -8.7586  -8.7337  -8.6777  -8.6678  -8.6493  -8.5654  -8.5519  -8.4455
    -5.2810  -5.2665  -5.2581  -5.2434  -5.2320  -5.2272  -5.2101  -5.2074
    -5.1932  -5.1626  -5.1592  -5.1560  -5.1460  -5.1351  -5.1247  -5.1202
    -5.1175  -5.1146  -5.1057  -5.0980  -5.0925  -5.0599  -5.0432  -5.0359
    -4.1987  -4.0057  -3.8904  -3.7242  -3.6672  -3.4452  -3.3272  -3.1364
    -0.7121  -0.6387  -0.5769  -0.4951  -0.3171  -0.2810  -0.1942  -0.1676
    -0.1017   0.0326   0.0800   0.1703   0.3313   0.3928   0.4453   0.4887
     0.4991   0.5444   0.5647   0.5911   0.6511   0.6855   0.7145   0.7581
     0.7935   0.8570   0.9149   0.9586   0.9693   0.9982   1.0146   1.0894
     1.1400   1.1578   1.1999   1.2557   1.2645   1.2872   1.3179   1.3931
     1.4066   1.4328   1.4681   1.4914   1.5255   1.5451   1.5882   1.6049
     1.6486   1.6743   1.6827   1.7083   1.7419   1.7602   1.7775   1.8080
     1.8228   1.8410   1.8700   1.9219   1.9462   1.9619   1.9999   2.0469
     2.0676   2.1010   2.1219   2.2229   2.2892   2.4305   2.5349   2.6778

          k =-0.3750 0.1250 0.3750 (132616 PWs)   bands (ev):

   -18.5109 -18.4621 -18.4517 -18.4480 -18.4477 -18.4433 -18.4393 -18.4351
   -18.3903 -18.3639 -18.3489 -18.3257 -18.2613 -18.2353 -18.2245 -18.2191
   -18.2144 -18.2114 -18.2019 -18.1927 -18.1860 -18.1843 -18.1736 -18.1724
   -18.1713 -18.1681 -18.1657 -18.1637 -18.1615 -18.1593 -18.1542 -18.1510
   -18.1408 -18.1197 -18.1038 -18.1002 -18.0993 -18.0914 -18.0905 -18.0859
   -18.0856 -18.0779 -18.0770 -18.0649 -18.0605 -18.0504 -18.0428 -18.0403
    -9.4409  -9.3928  -9.3349  -9.1973  -9.1698  -9.1365  -9.0577  -9.0282
    -9.0144  -8.9967  -8.9652  -8.9251  -8.9038  -8.8766  -8.8571  -8.8296
    -8.7573  -8.7354  -8.6811  -8.6646  -8.6500  -8.5652  -8.5523  -8.4454
    -5.2811  -5.2665  -5.2580  -5.2433  -5.2320  -5.2273  -5.2101  -5.2076
    -5.1931  -5.1626  -5.1590  -5.1560  -5.1460  -5.1350  -5.1246  -5.1203
    -5.1176  -5.1145  -5.1057  -5.0980  -5.0925  -5.0600  -5.0432  -5.0359
    -4.1990  -3.9952  -3.9091  -3.7086  -3.6753  -3.4177  -3.3646  -3.1249
    -0.7107  -0.6407  -0.5672  -0.5074  -0.4048  -0.2435  -0.1926  -0.1252
    -0.0288   0.0403   0.0673   0.1797   0.3091   0.3507   0.4292   0.4624
     0.5078   0.5318   0.5656   0.6055   0.6262   0.7023   0.7189   0.7453
     0.8282   0.8518   0.9019   0.9343   0.9819   1.0187   1.0384   1.0923
     1.1414   1.1655   1.2067   1.2479   1.2545   1.2980   1.3248   1.3809
     1.3918   1.4433   1.4704   1.4983   1.5065   1.5376   1.5976   1.6160
     1.6305   1.6738   1.6963   1.7089   1.7339   1.7576   1.7716   1.8076
     1.8272   1.8535   1.8786   1.9046   1.9347   1.9725   2.0051   2.0339
     2.0585   2.0866   2.1456   2.2414   2.2828   2.4291   2.5539   2.6580

          k = 0.3750-0.3750 0.1250 (132616 PWs)   bands (ev):

   -18.5109 -18.4621 -18.4517 -18.4480 -18.4477 -18.4433 -18.4393 -18.4351
   -18.3903 -18.3639 -18.3489 -18.3257 -18.2613 -18.2353 -18.2245 -18.2191
   -18.2144 -18.2114 -18.2019 -18.1927 -18.1860 -18.1843 -18.1736 -18.1724
   -18.1713 -18.1681 -18.1657 -18.1637 -18.1615 -18.1593 -18.1542 -18.1510
   -18.1408 -18.1197 -18.1038 -18.1002 -18.0993 -18.0914 -18.0905 -18.0859
   -18.0856 -18.0779 -18.0770 -18.0649 -18.0605 -18.0504 -18.0428 -18.0403
    -9.4500  -9.3776  -9.3402  -9.2033  -9.1415  -9.1158  -9.1027  -9.0473
    -9.0233  -9.0007  -8.9520  -8.9177  -8.8975  -8.8722  -8.8591  -8.8130
    -8.7716  -8.7287  -8.6812  -8.6603  -8.6533  -8.5701  -8.5559  -8.4428
    -5.2810  -5.2667  -5.2575  -5.2437  -5.2319  -5.2273  -5.2100  -5.2073
    -5.1933  -5.1622  -5.1596  -5.1562  -5.1466  -5.1347  -5.1252  -5.1191
    -5.1168  -5.1148  -5.1072  -5.0978  -5.0924  -5.0598  -5.0430  -5.0361
    -4.2079  -3.9810  -3.9191  -3.7270  -3.6305  -3.4406  -3.3534  -3.1392
    -0.7221  -0.5969  -0.5369  -0.4420  -0.3729  -0.3402  -0.2272  -0.1607
    -0.1004  -0.0356   0.1411   0.2014   0.3410   0.3965   0.4456   0.4813
     0.5157   0.5321   0.5682   0.5802   0.6402   0.6687   0.6836   0.7570
     0.8119   0.8809   0.9162   0.9678   1.0085   1.0212   1.0731   1.0807
     1.1101   1.1262   1.1643   1.2242   1.2432   1.2924   1.3175   1.3319
     1.3738   1.4402   1.4864   1.5318   1.5490   1.5736   1.6067   1.6212
     1.6368   1.6633   1.6945   1.7177   1.7296   1.7586   1.7768   1.8045
     1.8223   1.8438   1.8543   1.9066   1.9243   1.9630   2.0008   2.0324
     2.0608   2.0786   2.1300   2.2422   2.3198   2.4806   2.5459   2.6797

          k =-0.3750-0.3750-0.1250 (132616 PWs)   bands (ev):

   -18.5109 -18.4621 -18.4517 -18.4480 -18.4477 -18.4433 -18.4393 -18.4351
   -18.3903 -18.3639 -18.3489 -18.3257 -18.2613 -18.2353 -18.2245 -18.2191
   -18.2144 -18.2114 -18.2019 -18.1927 -18.1860 -18.1843 -18.1736 -18.1724
   -18.1713 -18.1681 -18.1657 -18.1637 -18.1615 -18.1593 -18.1542 -18.1510
   -18.1408 -18.1197 -18.1038 -18.1002 -18.0993 -18.0914 -18.0905 -18.0859
   -18.0856 -18.0779 -18.0770 -18.0649 -18.0605 -18.0504 -18.0428 -18.0403
    -9.4509  -9.3719  -9.3458  -9.1976  -9.1543  -9.1140  -9.0952  -9.0474
    -9.0222  -9.0015  -8.9520  -8.9193  -8.8998  -8.8715  -8.8617  -8.8084
    -8.7699  -8.7289  -8.6853  -8.6597  -8.6517  -8.5707  -8.5554  -8.4428
    -5.2811  -5.2666  -5.2575  -5.2436  -5.2319  -5.2274  -5.2099  -5.2074
    -5.1931  -5.1624  -5.1594  -5.1561  -5.1465  -5.1351  -5.1252  -5.1193
    -5.1167  -5.1147  -5.1071  -5.0977  -5.0925  -5.0597  -5.0429  -5.0362
    -4.2073  -3.9915  -3.9063  -3.7222  -3.6375  -3.4479  -3.3462  -3.1401
    -0.7129  -0.6023  -0.5363  -0.4378  -0.3631  -0.2907  -0.2697  -0.2135
    -0.0815  -0.0128   0.0662   0.2080   0.3633   0.4237   0.4530   0.4782
     0.4957   0.5506   0.5863   0.6024   0.6331   0.6766   0.7039   0.7186
     0.7866   0.8917   0.9143   0.9771   0.9958   1.0233   1.0435   1.0853
     1.1106   1.1518   1.1785   1.2139   1.2426   1.2927   1.3219   1.3413
     1.3900   1.4130   1.4750   1.5246   1.5512   1.5795   1.5922   1.6387
     1.6440   1.6609   1.6906   1.7230   1.7354   1.7491   1.7763   1.7898
     1.8237   1.8379   1.8709   1.8811   1.9199   1.9533   2.0097   2.0499
     2.0885   2.1065   2.1350   2.1875   2.3466   2.4614   2.5198   2.6977

          k = 0.3750 0.3750-0.1250 (132616 PWs)   bands (ev):

   -18.5109 -18.4621 -18.4517 -18.4480 -18.4477 -18.4433 -18.4393 -18.4351
   -18.3903 -18.3639 -18.3489 -18.3257 -18.2613 -18.2353 -18.2245 -18.2191
   -18.2144 -18.2114 -18.2019 -18.1927 -18.1860 -18.1843 -18.1736 -18.1724
   -18.1713 -18.1681 -18.1657 -18.1637 -18.1615 -18.1593 -18.1542 -18.1510
   -18.1408 -18.1197 -18.1038 -18.1002 -18.0993 -18.0914 -18.0905 -18.0859
   -18.0856 -18.0779 -18.0770 -18.0649 -18.0605 -18.0504 -18.0428 -18.0403
    -9.4500  -9.3764  -9.3421  -9.1983  -9.1565  -9.1132  -9.0854  -9.0506
    -9.0309  -8.9989  -8.9534  -8.9203  -8.8982  -8.8658  -8.8613  -8.8130
    -8.7697  -8.7284  -8.6869  -8.6576  -8.6517  -8.5711  -8.5556  -8.4427
    -5.2811  -5.2665  -5.2575  -5.2436  -5.2319  -5.2274  -5.2099  -5.2073
    -5.1933  -5.1624  -5.1593  -5.1562  -5.1464  -5.1350  -5.1252  -5.1191
    -5.1169  -5.1148  -5.1071  -5.0977  -5.0925  -5.0598  -5.0430  -5.0361
    -4.2071  -3.9924  -3.9036  -3.7273  -3.6368  -3.4461  -3.3455  -3.1396
    -0.7411  -0.5960  -0.5302  -0.4368  -0.3539  -0.2825  -0.2462  -0.2114
    -0.0841  -0.0161   0.0588   0.1928   0.3637   0.4232   0.4574   0.4794
     0.4993   0.5444   0.5767   0.5938   0.6239   0.6577   0.7165   0.7430
     0.7976   0.8832   0.9234   0.9771   0.9990   1.0107   1.0528   1.0824
     1.1223   1.1415   1.1787   1.1979   1.2647   1.2846   1.3150   1.3265
     1.3756   1.4391   1.4956   1.5300   1.5435   1.5574   1.6094   1.6217
     1.6557   1.6701   1.6797   1.7145   1.7370   1.7469   1.7847   1.7978
     1.8260   1.8501   1.8701   1.8804   1.8963   1.9351   2.0211   2.0403
     2.0842   2.1098   2.1512   2.1872   2.3356   2.4805   2.5404   2.6813

          k =-0.3750 0.3750 0.1250 (132616 PWs)   bands (ev):

   -18.5109 -18.4621 -18.4517 -18.4480 -18.4477 -18.4433 -18.4393 -18.4351
   -18.3903 -18.3639 -18.3489 -18.3257 -18.2613 -18.2353 -18.2245 -18.2191
   -18.2144 -18.2114 -18.2019 -18.1927 -18.1860 -18.1843 -18.1736 -18.1724
   -18.1713 -18.1681 -18.1657 -18.1637 -18.1615 -18.1593 -18.1542 -18.1510
   -18.1408 -18.1197 -18.1038 -18.1002 -18.0993 -18.0914 -18.0905 -18.0859
   -18.0856 -18.0779 -18.0770 -18.0649 -18.0605 -18.0504 -18.0428 -18.0403
    -9.4507  -9.3727  -9.3447  -9.2046  -9.1446  -9.1183  -9.0871  -9.0454
    -9.0335  -9.0031  -8.9518  -8.9189  -8.8974  -8.8704  -8.8584  -8.8110
    -8.7710  -8.7300  -8.6831  -8.6594  -8.6527  -8.5702  -8.5562  -8.4427
    -5.2811  -5.2667  -5.2574  -5.2436  -5.2319  -5.2274  -5.2100  -5.2074
    -5.1931  -5.1622  -5.1594  -5.1563  -5.1467  -5.1346  -5.1251  -5.1192
    -5.1168  -5.1148  -5.1072  -5.0978  -5.0925  -5.0598  -5.0429  -5.0361
    -4.2078  -3.9806  -3.9202  -3.7201  -3.6359  -3.4432  -3.3566  -3.1336
    -0.7334  -0.6158  -0.5272  -0.4429  -0.3632  -0.3284  -0.2062  -0.1688
    -0.0942  -0.0329   0.1379   0.2032   0.3354   0.3861   0.4416   0.4820
     0.5109   0.5251   0.5558   0.5888   0.6364   0.6597   0.6878   0.7577
     0.8079   0.8874   0.9093   0.9751   0.9946   1.0393   1.0701   1.0978
     1.1141   1.1305   1.1644   1.2177   1.2528   1.2988   1.3133   1.3491
     1.3928   1.4204   1.4661   1.5296   1.5458   1.5709   1.6150   1.6281
     1.6339   1.6557   1.6874   1.7148   1.7345   1.7520   1.7868   1.8031
     1.8178   1.8475   1.8659   1.8892   1.9160   1.9580   1.9922   2.0278
     2.0555   2.0977   2.1500   2.2329   2.3041   2.5060   2.5549   2.6697

          k =-0.3750-0.3750 0.3750 (132612 PWs)   bands (ev):

   -18.5109 -18.4621 -18.4517 -18.4480 -18.4477 -18.4433 -18.4393 -18.4351
   -18.3903 -18.3639 -18.3489 -18.3257 -18.2613 -18.2353 -18.2245 -18.2191
   -18.2144 -18.2114 -18.2019 -18.1927 -18.1860 -18.1843 -18.1736 -18.1724
   -18.1713 -18.1681 -18.1657 -18.1636 -18.1615 -18.1593 -18.1542 -18.1510
   -18.1408 -18.1197 -18.1038 -18.1002 -18.0993 -18.0914 -18.0905 -18.0859
   -18.0856 -18.0779 -18.0770 -18.0649 -18.0605 -18.0504 -18.0428 -18.0403
    -9.4272  -9.3868  -9.3508  -9.1892  -9.1674  -9.1276  -9.1037  -9.0602
    -9.0142  -8.9898  -8.9616  -8.9245  -8.8764  -8.8613  -8.8476  -8.8206
    -8.7656  -8.7333  -8.6826  -8.6630  -8.6524  -8.5713  -8.5549  -8.4458
    -5.2812  -5.2666  -5.2575  -5.2436  -5.2321  -5.2275  -5.2100  -5.2075
    -5.1933  -5.1627  -5.1591  -5.1560  -5.1460  -5.1351  -5.1251  -5.1191
    -5.1168  -5.1146  -5.1069  -5.0977  -5.0925  -5.0599  -5.0430  -5.0359
    -4.0810  -3.8900  -3.8440  -3.7722  -3.6527  -3.5490  -3.5069  -3.3250
    -0.5080  -0.3808  -0.3612  -0.2837  -0.2239  -0.1780  -0.1647  -0.0939
    -0.0197   0.0181   0.0624   0.2327   0.2929   0.3399   0.3810   0.4242
     0.4527   0.4857   0.5412   0.5682   0.5896   0.6270   0.6496   0.7083
     0.8172   0.8717   0.8973   0.9219   0.9476   0.9812   1.0170   1.0465
     1.0890   1.1214   1.1513   1.1846   1.2099   1.2412   1.2661   1.2914
     1.3513   1.4007   1.4432   1.5065   1.5257   1.5730   1.6153   1.6344
     1.6540   1.7039   1.7229   1.7482   1.7587   1.7934   1.8081   1.8231
     1.8491   1.8520   1.8586   1.8872   1.8975   1.9272   1.9829   2.0283
     2.0408   2.0565   2.1058   2.1353   2.1919   2.2738   2.2893   2.3335

          k =-0.3750 0.3750-0.3750 (132612 PWs)   bands (ev):

   -18.5109 -18.4621 -18.4517 -18.4480 -18.4477 -18.4433 -18.4393 -18.4351
   -18.3903 -18.3639 -18.3489 -18.3257 -18.2613 -18.2353 -18.2245 -18.2191
   -18.2144 -18.2114 -18.2019 -18.1927 -18.1860 -18.1843 -18.1736 -18.1724
   -18.1713 -18.1681 -18.1657 -18.1637 -18.1615 -18.1593 -18.1542 -18.1510
   -18.1408 -18.1197 -18.1038 -18.1002 -18.0993 -18.0914 -18.0905 -18.0859
   -18.0856 -18.0779 -18.0770 -18.0649 -18.0605 -18.0504 -18.0428 -18.0403
    -9.4274  -9.3867  -9.3506  -9.1892  -9.1610  -9.1380  -9.1030  -9.0593
    -9.0093  -8.9924  -8.9616  -8.9225  -8.8751  -8.8608  -8.8536  -8.8187
    -8.7665  -8.7327  -8.6787  -8.6667  -8.6527  -8.5706  -8.5548  -8.4459
    -5.2810  -5.2668  -5.2575  -5.2437  -5.2320  -5.2274  -5.2100  -5.2075
    -5.1933  -5.1624  -5.1594  -5.1560  -5.1462  -5.1348  -5.1250  -5.1190
    -5.1167  -5.1146  -5.1070  -5.0977  -5.0924  -5.0599  -5.0429  -5.0359
    -4.0808  -3.8890  -3.8533  -3.7613  -3.6446  -3.5794  -3.4820  -3.3307
    -0.4760  -0.4196  -0.3293  -0.2747  -0.2417  -0.2201  -0.1663  -0.0949
    -0.0430   0.0022   0.1115   0.2656   0.3031   0.3469   0.4052   0.4244
     0.4557   0.4939   0.5103   0.5428   0.5912   0.6302   0.6617   0.6773
     0.8262   0.8466   0.8921   0.9314   0.9624   0.9846   1.0037   1.0643
     1.0776   1.1145   1.1316   1.1749   1.2160   1.2437   1.2695   1.3099
     1.3561   1.4187   1.4470   1.5023   1.5302   1.5765   1.5936   1.6145
     1.6568   1.7182   1.7287   1.7416   1.7765   1.7894   1.8026   1.8220
     1.8464   1.8616   1.8689   1.9030   1.9164   1.9395   1.9618   2.0016
     2.0456   2.0566   2.0704   2.1434   2.1735   2.2330   2.2870   2.4007

          k = 0.3750-0.3750-0.3750 (132612 PWs)   bands (ev):

   -18.5109 -18.4621 -18.4517 -18.4480 -18.4477 -18.4433 -18.4393 -18.4351
   -18.3903 -18.3639 -18.3489 -18.3257 -18.2613 -18.2353 -18.2245 -18.2191
   -18.2144 -18.2114 -18.2019 -18.1927 -18.1860 -18.1843 -18.1736 -18.1724
   -18.1713 -18.1681 -18.1657 -18.1637 -18.1615 -18.1593 -18.1542 -18.1510
   -18.1408 -18.1197 -18.1038 -18.1002 -18.0993 -18.0914 -18.0905 -18.0859
   -18.0856 -18.0779 -18.0770 -18.0649 -18.0605 -18.0504 -18.0428 -18.0403
    -9.4295  -9.3784  -9.3570  -9.1928  -9.1637  -9.1283  -9.1013  -9.0604
    -9.0127  -8.9946  -8.9609  -8.9232  -8.8771  -8.8618  -8.8487  -8.8173
    -8.7656  -8.7340  -8.6818  -8.6643  -8.6526  -8.5707  -8.5551  -8.4458
    -5.2811  -5.2667  -5.2575  -5.2436  -5.2320  -5.2275  -5.2100  -5.2076
    -5.1931  -5.1624  -5.1592  -5.1561  -5.1462  -5.1347  -5.1250  -5.1191
    -5.1168  -5.1146  -5.1070  -5.0977  -5.0924  -5.0600  -5.0429  -5.0359
    -4.0811  -3.8908  -3.8392  -3.7831  -3.6215  -3.5630  -3.5271  -3.3148
    -0.5020  -0.4233  -0.3560  -0.2983  -0.2331  -0.1661  -0.1340  -0.0641
    -0.0132   0.0073   0.1076   0.2254   0.2763   0.3521   0.3693   0.3892
     0.4493   0.4886   0.5372   0.5575   0.5909   0.6214   0.6537   0.7047
     0.8122   0.8645   0.8764   0.9151   0.9702   1.0056   1.0318   1.0575
     1.0913   1.1121   1.1513   1.1705   1.1995   1.2393   1.2847   1.2967
     1.3329   1.4228   1.4600   1.5156   1.5421   1.5741   1.5918   1.6199
     1.6604   1.6886   1.7167   1.7574   1.7681   1.7830   1.8037   1.8253
     1.8353   1.8509   1.8688   1.8873   1.9174   1.9339   1.9802   1.9961
     2.0164   2.0600   2.1117   2.1317   2.1914   2.2350   2.3227   2.3702

     highest occupied level (ev):     3.2068

!    total energy              =   -2256.30191346 Ry
     estimated scf accuracy    <          5.7E-11 Ry

     The total energy is the sum of the following terms:
     one-electron contribution =    -989.25415819 Ry
     hartree contribution      =     622.80980363 Ry
     xc contribution           =    -647.52827196 Ry
     ewald contribution        =   -1242.32928693 Ry

     convergence has been achieved in  15 iterations

     Forces acting on atoms (cartesian axes, Ry/au):

     atom    1 type  1   force =    -0.00159113   -0.00206565    0.00239400
     atom    2 type  2   force =    -0.00182419   -0.01289502    0.00471994
     atom    3 type  3   force =    -0.00657843    0.01298359   -0.00079293
     atom    4 type  3   force =    -0.00287049    0.00504261   -0.00464212
     atom    5 type  3   force =     0.00054024    0.01289203    0.00044970
     atom    6 type  1   force =    -0.00217091   -0.00150325   -0.00179521
     atom    7 type  2   force =     0.01782620    0.00806709   -0.00737819
     atom    8 type  3   force =    -0.00045444    0.00290546    0.00067377
     atom    9 type  3   force =    -0.00259790   -0.00002607    0.00144624
     atom   10 type  3   force =    -0.00203809   -0.00203799    0.00350954
     atom   11 type  1   force =    -0.00013014    0.00219418    0.00164550
     atom   12 type  2   force =    -0.00896021   -0.00911706   -0.00873288
     atom   13 type  3   force =    -0.00816065    0.00587752   -0.00031400
     atom   14 type  3   force =     0.00479458    0.00110572    0.00554045
     atom   15 type  3   force =    -0.00228353   -0.00980352    0.00053300
     atom   16 type  1   force =    -0.00238919    0.00441549    0.00491628
     atom   17 type  2   force =     0.01750659    0.00800914   -0.01051166
     atom   18 type  3   force =     0.01095314    0.00278230   -0.00273612
     atom   19 type  3   force =    -0.00409661   -0.00252959    0.00281035
     atom   20 type  3   force =    -0.00155931   -0.01206546    0.00353311
     atom   21 type  1   force =     0.00064400    0.00138873   -0.00286112
     atom   22 type  2   force =     0.00380345   -0.02232715    0.01236192
     atom   23 type  3   force =     0.01297331    0.00230557    0.00482813
     atom   24 type  3   force =    -0.00651735   -0.00245569   -0.01856539
     atom   25 type  3   force =     0.00164356    0.01126820    0.00325445
     atom   26 type  1   force =     0.00349108   -0.00312281    0.00117216
     atom   27 type  2   force =    -0.01675574   -0.00099555    0.00991994
     atom   28 type  3   force =     0.00828081   -0.00289317    0.00814241
     atom   29 type  3   force =    -0.00291444   -0.00138567   -0.01537801
     atom   30 type  3   force =     0.00336882    0.00415169    0.00512350
     atom   31 type  1   force =     0.00311111    0.00165214   -0.00380818
     atom   32 type  2   force =    -0.00167167    0.01695682    0.00273948
     atom   33 type  3   force =     0.00695370   -0.00072502   -0.01058541
     atom   34 type  3   force =    -0.00650333    0.00043468    0.02144568
     atom   35 type  3   force =     0.00398185   -0.01103549   -0.00160743
     atom   36 type  1   force =     0.00011983    0.00112718    0.00319697
     atom   37 type  2   force =    -0.01237860   -0.00855005   -0.00032833
     atom   38 type  3   force =    -0.00815578    0.00262062   -0.00337790
     atom   39 type  3   force =    -0.00727463    0.00460455   -0.00780180
     atom   40 type  3   force =     0.00988452   -0.00725110   -0.00313985

     Total force =     0.080551     Total SCF correction =     0.000035


     Computing stress (Cartesian axis) and pressure

          total   stress  (Ry/bohr**3)                   (kbar)     P=       -6.88
  -0.00005548  -0.00000181   0.00000045           -8.16       -0.27        0.07
  -0.00000181  -0.00004182   0.00000020           -0.27       -6.15        0.03
   0.00000045   0.00000020  -0.00004296            0.07        0.03       -6.32

 
     init_run     :     20.10s CPU     17.01s WALL (       1 calls)
     electrons    :    200.64s CPU    210.65s WALL (       1 calls)
     forces       :      8.76s CPU      3.91s WALL (       1 calls)
     stress       :     31.02s CPU     30.38s WALL (       1 calls)

     Called by init_run:
     wfcinit      :     12.25s CPU     13.97s WALL (       1 calls)
                                       13.97s GPU  (       1 calls)
     potinit      :      4.56s CPU      1.39s WALL (       1 calls)
     hinit0       :      2.73s CPU      0.98s WALL (       1 calls)

     Called by electrons:
     c_bands      :    120.44s CPU    169.00s WALL (      16 calls)
     sum_band     :     21.59s CPU     20.61s WALL (      16 calls)
                                       20.61s GPU  (      16 calls)
     v_of_rho     :     54.57s CPU     16.43s WALL (      16 calls)
     mix_rho      :      6.16s CPU      4.86s WALL (      16 calls)

     Called by c_bands:
     init_us_2    :      2.18s CPU      2.96s WALL (     280 calls)
                                        2.95s GPU  (     280 calls)
     cegterg      :     79.65s CPU    125.93s WALL (     128 calls)

     Called by *egterg:
     cdiaghg      :     13.27s CPU     24.92s WALL (     642 calls)
                                       24.89s GPU  (     642 calls)
     h_psi        :     54.54s CPU     73.42s WALL (     658 calls)
                                       72.99s GPU  (     658 calls)
     g_psi        :      0.00s CPU      0.36s WALL (     522 calls)
                                        0.35s GPU  (     522 calls)

     Called by h_psi:
     h_psi:calbec :      0.34s CPU      9.79s WALL (     658 calls)
                                        9.78s GPU  (     658 calls)
     vloc_psi     :     39.59s CPU     53.92s WALL (     658 calls)
                                       53.02s GPU  (     658 calls)
     add_vuspsi   :      0.33s CPU      9.62s WALL (     658 calls)
                                        9.61s GPU  (     658 calls)

     General routines
     calbec       :      0.34s CPU      0.39s WALL (     698 calls)
     fft          :     25.50s CPU      6.50s WALL (     185 calls)
                                        0.00s GPU  (       6 calls)
     ffts         :      2.62s CPU      0.68s WALL (      16 calls)
     fftw         :      0.66s CPU     62.51s WALL (   10390 calls)
                                       46.75s GPU  (   10390 calls)
 
     Parallel routines
 
     PWSCF        :   4m21.20s CPU   4m22.73s WALL

 
   This run was terminated on:  20:48:53  22Apr2021            

=------------------------------------------------------------------------------=
   JOB DONE.
=------------------------------------------------------------------------------=
