
     Program PWSCF v.6.7MaX starts on 22Apr2021 at 19:11:13 

     This program is part of the open-source Quantum ESPRESSO suite
     for quantum simulation of materials; please cite
         "P. Giannozzi et al., J. Phys.:Condens. Matter 21 395502 (2009);
         "P. Giannozzi et al., J. Phys.:Condens. Matter 29 465901 (2017);
         "P. Giannozzi et al., J. Chem. Phys. 152 154105 (2020);
          URL http://www.quantum-espresso.org", 
     in publications or presentations arising from this work. More details at
     http://www.quantum-espresso.org/quote

     Parallel version (MPI & OpenMP), running on      16 processor cores
     Number of MPI processes:                 4
     Threads/MPI process:                     4

     MPI processes distributed on     1 nodes
     K-points division:     npool     =       4
     Reading input from ESP_41.pwi
Warning: card &CELL ignored
Warning: card / ignored

     Current dimensions of program PWSCF are:
     Max number of different atomic species (ntypx) = 10
     Max number of k-points (npk) =  40000
     Max angular momentum in pseudopotentials (lmaxx) =  3
     Message from routine read_pp_mesh:
     mesh size missing, using the one in header
     Message from routine read_pp_mesh:
     mesh size missing, using the one in header
     Message from routine read_pp_mesh:
     mesh size missing, using the one in header

     Subspace diagonalization in iterative solution of the eigenvalue problem:
     a serial algorithm will be used

 
     G-vector sticks info
     --------------------
     sticks:   dense  smooth     PW     G-vecs:    dense   smooth      PW
     Sum       12589   12589   3289              1061107  1061107  140905
 
     Using Slab Decomposition
 


     bravais-lattice index     =            0
     lattice parameter (alat)  =      23.7585  a.u.
     unit-cell volume          =   13410.8736 (a.u.)^3
     number of atoms/cell      =           40
     number of atomic types    =            3
     number of electrons       =       352.00
     number of Kohn-Sham states=          176
     kinetic-energy cutoff     =      70.0000  Ry
     charge density cutoff     =     280.0000  Ry
     scf convergence threshold =      1.0E-10
     mixing beta               =       0.7000
     number of iterations used =            8  plain     mixing
     Exchange-correlation= PBESOL
                           (   1   4  10   8   0   0   0)

     GPU acceleration is ACTIVE.


     celldm(1)=  23.758500  celldm(2)=   0.000000  celldm(3)=   0.000000
     celldm(4)=   0.000000  celldm(5)=   0.000000  celldm(6)=   0.000000

     crystal axes: (cart. coord. in units of alat)
               a(1) = (   1.000000   0.000000   0.000000 )  
               a(2) = (   0.000000   1.000000   0.000000 )  
               a(3) = (   0.000000   0.000000   1.000000 )  

     reciprocal axes: (cart. coord. in units 2 pi/alat)
               b(1) = (  1.000000  0.000000  0.000000 )  
               b(2) = (  0.000000  1.000000  0.000000 )  
               b(3) = (  0.000000  0.000000  1.000000 )  


     PseudoPot. # 1 for Cs read from file:
     /m100/home/userexternal/lmonacel/espresso/pseudo/Cs-nc-pbesol.upf
     MD5 check sum: 9d2f2206a14dc5b3b3f3fbfae186bed4
     Pseudo is Norm-conserving + core correction, Zval =  9.0
     Generated using ONCVPSP code by D. R. Hamann
     Using radial grid of 2384 points,  8 beta functions with: 
                l(1) =   0
                l(2) =   0
                l(3) =   1
                l(4) =   1
                l(5) =   2
                l(6) =   2
                l(7) =   3
                l(8) =   3

     PseudoPot. # 2 for Sn read from file:
     /m100/home/userexternal/lmonacel/espresso/pseudo/Sn-nc-pbesol.upf
     MD5 check sum: c2995d571af40102bfea7461443d92cf
     Pseudo is Norm-conserving + core correction, Zval = 14.0
     Generated using ONCVPSP code by D. R. Hamann
     Using radial grid of 1628 points,  6 beta functions with: 
                l(1) =   0
                l(2) =   0
                l(3) =   1
                l(4) =   1
                l(5) =   2
                l(6) =   2

     PseudoPot. # 3 for I  read from file:
     /m100/home/userexternal/lmonacel/espresso/pseudo/I-nc-pbesol.upf
     MD5 check sum: 80ed5ceb2eb9c553cfb6760a299d9c5b
     Pseudo is Norm-conserving + core correction, Zval =  7.0
     Generated using ONCVPSP code by D. R. Hamann
     Using radial grid of 1182 points,  6 beta functions with: 
                l(1) =   0
                l(2) =   0
                l(3) =   1
                l(4) =   1
                l(5) =   2
                l(6) =   2

     atomic species   valence    mass     pseudopotential
        Cs             9.00   132.90545     Cs( 1.00)
        Sn            14.00   118.71000     Sn( 1.00)
        I              7.00   126.90447     I ( 1.00)

     No symmetry found



   Cartesian axes

     site n.     atom                  positions (alat units)
         1           Cs  tau(   1) = (   0.2726954   0.2561074   0.2505614  )
         2           Sn  tau(   2) = (   0.0178337   0.0068198   0.0102184  )
         3           I   tau(   3) = (   0.2571304   0.0073785  -0.0275297  )
         4           I   tau(   4) = (   0.0082023   0.0040175   0.2523036  )
         5           I   tau(   5) = (  -0.0046122   0.2497235  -0.0374915  )
         6           Cs  tau(   6) = (   0.2363699   0.2339242   0.7951414  )
         7           Sn  tau(   7) = (  -0.0089193   0.0061338   0.5158419  )
         8           I   tau(   8) = (   0.2489911   0.0555029   0.5220922  )
         9           I   tau(   9) = (   0.0055237  -0.0397538   0.7467891  )
        10           I   tau(  10) = (  -0.0088241   0.2496190   0.4933198  )
        11           Cs  tau(  11) = (   0.2531630   0.7534822   0.2338799  )
        12           Sn  tau(  12) = (  -0.0019600   0.4945846  -0.0031128  )
        13           I   tau(  13) = (   0.2458415   0.4827003   0.0011546  )
        14           I   tau(  14) = (   0.0643304   0.4626174   0.2475111  )
        15           I   tau(  15) = (  -0.0158902   0.7602795   0.0345810  )
        16           Cs  tau(  16) = (   0.2456975   0.7911945   0.7613686  )
        17           Sn  tau(  17) = (  -0.0049362   0.5054387   0.5074821  )
        18           I   tau(  18) = (   0.2291179   0.5000337   0.5078030  )
        19           I   tau(  19) = (  -0.0043976   0.5310162   0.7604846  )
        20           I   tau(  20) = (  -0.0114089   0.7460441   0.4418906  )
        21           Cs  tau(  21) = (   0.7348854   0.2654613   0.2999230  )
        22           Sn  tau(  22) = (   0.5232224  -0.0021820  -0.0051273  )
        23           I   tau(  23) = (   0.7604867  -0.0058028  -0.0135447  )
        24           I   tau(  24) = (   0.4975483   0.0228369   0.2422050  )
        25           I   tau(  25) = (   0.5053947   0.2377798   0.0053919  )
        26           Cs  tau(  26) = (   0.7398189   0.2506325   0.7760000  )
        27           Sn  tau(  27) = (   0.5033979   0.0080176   0.4879244  )
        28           I   tau(  28) = (   0.7529954   0.0066096   0.4914151  )
        29           I   tau(  29) = (   0.4818395  -0.0302830   0.7474171  )
        30           I   tau(  30) = (   0.5124673   0.2582757   0.5324277  )
        31           Cs  tau(  31) = (   0.7455723   0.7651086   0.2413251  )
        32           Sn  tau(  32) = (   0.4907428   0.4864386  -0.0016088  )
        33           I   tau(  33) = (   0.7400927   0.4775573  -0.0135418  )
        34           I   tau(  34) = (   0.5211041   0.4734824   0.2476945  )
        35           I   tau(  35) = (   0.4950588   0.7628038   0.0029608  )
        36           Cs  tau(  36) = (   0.7470715   0.7505466   0.7483759  )
        37           Sn  tau(  37) = (   0.4897834   0.4912523   0.5048917  )
        38           I   tau(  38) = (   0.7397673   0.4956978   0.4828382  )
        39           I   tau(  39) = (   0.5187179   0.4715344   0.7446561  )
        40           I   tau(  40) = (   0.4778452   0.7540007   0.4601132  )

     number of k points=    32
                       cart. coord. in units 2pi/alat
        k(    1) = (   0.1250000   0.1250000   0.1250000), wk =   0.0625000
        k(    2) = (   0.1250000   0.1250000   0.3750000), wk =   0.0625000
        k(    3) = (   0.1250000   0.3750000   0.3750000), wk =   0.0625000
        k(    4) = (   0.3750000   0.3750000   0.3750000), wk =   0.0625000
        k(    5) = (  -0.1250000  -0.1250000   0.1250000), wk =   0.0625000
        k(    6) = (  -0.1250000   0.1250000  -0.1250000), wk =   0.0625000
        k(    7) = (   0.1250000  -0.1250000  -0.1250000), wk =   0.0625000
        k(    8) = (  -0.1250000  -0.1250000   0.3750000), wk =   0.0625000
        k(    9) = (  -0.1250000   0.1250000  -0.3750000), wk =   0.0625000
        k(   10) = (   0.1250000  -0.1250000  -0.3750000), wk =   0.0625000
        k(   11) = (   0.3750000  -0.1250000   0.1250000), wk =   0.0625000
        k(   12) = (  -0.3750000  -0.1250000  -0.1250000), wk =   0.0625000
        k(   13) = (   0.3750000   0.1250000  -0.1250000), wk =   0.0625000
        k(   14) = (  -0.3750000   0.1250000   0.1250000), wk =   0.0625000
        k(   15) = (  -0.1250000   0.3750000   0.1250000), wk =   0.0625000
        k(   16) = (  -0.1250000  -0.3750000  -0.1250000), wk =   0.0625000
        k(   17) = (   0.1250000   0.3750000  -0.1250000), wk =   0.0625000
        k(   18) = (   0.1250000  -0.3750000   0.1250000), wk =   0.0625000
        k(   19) = (  -0.1250000  -0.3750000   0.3750000), wk =   0.0625000
        k(   20) = (  -0.1250000   0.3750000  -0.3750000), wk =   0.0625000
        k(   21) = (   0.1250000  -0.3750000  -0.3750000), wk =   0.0625000
        k(   22) = (   0.3750000   0.1250000  -0.3750000), wk =   0.0625000
        k(   23) = (  -0.3750000  -0.1250000  -0.3750000), wk =   0.0625000
        k(   24) = (   0.3750000  -0.1250000   0.3750000), wk =   0.0625000
        k(   25) = (  -0.3750000   0.1250000   0.3750000), wk =   0.0625000
        k(   26) = (   0.3750000  -0.3750000   0.1250000), wk =   0.0625000
        k(   27) = (  -0.3750000  -0.3750000  -0.1250000), wk =   0.0625000
        k(   28) = (   0.3750000   0.3750000  -0.1250000), wk =   0.0625000
        k(   29) = (  -0.3750000   0.3750000   0.1250000), wk =   0.0625000
        k(   30) = (  -0.3750000  -0.3750000   0.3750000), wk =   0.0625000
        k(   31) = (  -0.3750000   0.3750000  -0.3750000), wk =   0.0625000
        k(   32) = (   0.3750000  -0.3750000  -0.3750000), wk =   0.0625000

     Dense  grid:  1061107 G-vectors     FFT dimensions: ( 128, 128, 128)

     Estimated max dynamical RAM per process >       6.82 GB

     Estimated total dynamical RAM >      27.27 GB

     Initial potential from superposition of free atoms

     starting charge  351.69472, renormalised to  352.00000
     Starting wfcs are  208 randomized atomic wfcs

     total cpu time spent up to now is       18.0 secs

     Self-consistent Calculation

     iteration #  1     ecut=    70.00 Ry     beta= 0.70
     Davidson diagonalization with overlap
     ethr =  1.00E-02,  avg # of iterations =  2.0

     Threshold (ethr) on eigenvalues was too large:
     Diagonalizing with lowered threshold

     Davidson diagonalization with overlap
     ethr =  2.27E-04,  avg # of iterations =  4.0

     total cpu time spent up to now is       39.0 secs

     total energy              =   -2255.99532181 Ry
     estimated scf accuracy    <       0.70043619 Ry

     iteration #  2     ecut=    70.00 Ry     beta= 0.70
     Davidson diagonalization with overlap
     ethr =  1.99E-04,  avg # of iterations =  3.2

     total cpu time spent up to now is       51.9 secs

     total energy              =   -2256.20833289 Ry
     estimated scf accuracy    <       0.34975624 Ry

     iteration #  3     ecut=    70.00 Ry     beta= 0.70
     Davidson diagonalization with overlap
     ethr =  9.94E-05,  avg # of iterations =  3.0

     total cpu time spent up to now is       63.8 secs

     total energy              =   -2256.27589545 Ry
     estimated scf accuracy    <       0.02483723 Ry

     iteration #  4     ecut=    70.00 Ry     beta= 0.70
     Davidson diagonalization with overlap
     ethr =  7.06E-06,  avg # of iterations =  4.2

     total cpu time spent up to now is       77.1 secs

     total energy              =   -2256.28453293 Ry
     estimated scf accuracy    <       0.00576554 Ry

     iteration #  5     ecut=    70.00 Ry     beta= 0.70
     Davidson diagonalization with overlap
     ethr =  1.64E-06,  avg # of iterations =  3.0

     total cpu time spent up to now is       89.6 secs

     total energy              =   -2256.28567262 Ry
     estimated scf accuracy    <       0.00156281 Ry

     iteration #  6     ecut=    70.00 Ry     beta= 0.70
     Davidson diagonalization with overlap
     ethr =  4.44E-07,  avg # of iterations =  2.9

     total cpu time spent up to now is      101.7 secs

     total energy              =   -2256.28593408 Ry
     estimated scf accuracy    <       0.00014651 Ry

     iteration #  7     ecut=    70.00 Ry     beta= 0.70
     Davidson diagonalization with overlap
     ethr =  4.16E-08,  avg # of iterations =  5.8

     total cpu time spent up to now is      116.4 secs

     total energy              =   -2256.28599370 Ry
     estimated scf accuracy    <       0.00002069 Ry

     iteration #  8     ecut=    70.00 Ry     beta= 0.70
     Davidson diagonalization with overlap
     ethr =  5.88E-09,  avg # of iterations =  4.8

     total cpu time spent up to now is      130.6 secs

     total energy              =   -2256.28600185 Ry
     estimated scf accuracy    <       0.00000430 Ry

     iteration #  9     ecut=    70.00 Ry     beta= 0.70
     Davidson diagonalization with overlap
     ethr =  1.22E-09,  avg # of iterations =  4.0

     total cpu time spent up to now is      144.2 secs

     total energy              =   -2256.28600331 Ry
     estimated scf accuracy    <       0.00000088 Ry

     iteration # 10     ecut=    70.00 Ry     beta= 0.70
     Davidson diagonalization with overlap
     ethr =  2.49E-10,  avg # of iterations =  3.7

     total cpu time spent up to now is      157.6 secs

     total energy              =   -2256.28600353 Ry
     estimated scf accuracy    <       0.00000017 Ry

     iteration # 11     ecut=    70.00 Ry     beta= 0.70
     Davidson diagonalization with overlap
     ethr =  4.97E-11,  avg # of iterations =  4.0

     total cpu time spent up to now is      172.3 secs

     total energy              =   -2256.28600361 Ry
     estimated scf accuracy    <       0.00000002 Ry

     iteration # 12     ecut=    70.00 Ry     beta= 0.70
     Davidson diagonalization with overlap
     ethr =  6.22E-12,  avg # of iterations =  6.8

     total cpu time spent up to now is      190.2 secs

     total energy              =   -2256.28600363 Ry
     estimated scf accuracy    <       0.00000001 Ry

     iteration # 13     ecut=    70.00 Ry     beta= 0.70
     Davidson diagonalization with overlap
     ethr =  3.81E-12,  avg # of iterations =  2.9

     total cpu time spent up to now is      202.5 secs

     total energy              =   -2256.28600363 Ry
     estimated scf accuracy    <          1.1E-09 Ry

     iteration # 14     ecut=    70.00 Ry     beta= 0.70
     Davidson diagonalization with overlap
     ethr =  3.22E-13,  avg # of iterations =  5.5

     total cpu time spent up to now is      219.0 secs

     total energy              =   -2256.28600363 Ry
     estimated scf accuracy    <          1.5E-10 Ry

     iteration # 15     ecut=    70.00 Ry     beta= 0.70
     Davidson diagonalization with overlap
     ethr =  1.00E-13,  avg # of iterations =  3.7

     total cpu time spent up to now is      231.8 secs

     End of self-consistent calculation

          k = 0.1250 0.1250 0.1250 (132670 PWs)   bands (ev):

   -18.5721 -18.3602 -18.3600 -18.3530 -18.3483 -18.3481 -18.3475 -18.3446
   -18.3363 -18.3290 -18.3274 -18.3255 -18.3199 -18.3181 -18.3137 -18.2868
   -18.2805 -18.2783 -18.2724 -18.2688 -18.2682 -18.2665 -18.2651 -18.2617
   -18.2614 -18.2569 -18.2565 -18.2558 -18.2541 -18.2523 -18.2473 -18.2417
   -18.2402 -18.2310 -18.2282 -18.2263 -18.2242 -18.2164 -18.2163 -18.2138
   -18.2039 -18.2033 -18.1992 -18.1812 -18.1703 -18.1652 -18.1619 -18.1452
    -9.4534  -9.3299  -9.2998  -9.2710  -9.1802  -9.1143  -9.1096  -9.0585
    -9.0436  -9.0234  -8.9567  -8.9190  -8.8998  -8.8753  -8.8145  -8.7930
    -8.7787  -8.7350  -8.6891  -8.6648  -8.6078  -8.5616  -8.4779  -8.3682
    -5.3303  -5.3235  -5.3175  -5.1401  -5.1385  -5.1368  -5.1323  -5.1309
    -5.1256  -5.1234  -5.1187  -5.1088  -5.1071  -5.1044  -5.0948  -5.0373
    -5.0272  -5.0199  -5.0091  -5.0043  -5.0024  -4.9891  -4.9851  -4.9778
    -4.4658  -3.9691  -3.9451  -3.8784  -3.4339  -3.3783  -3.3091  -2.7624
    -0.7960  -0.7231  -0.6827  -0.6345  -0.6013  -0.5541  -0.5006  -0.4520
    -0.3910  -0.2802  -0.2353  -0.1923   0.4224   0.4338   0.4538   0.5940
     0.6360   0.6683   0.7075   0.7526   0.7843   0.8946   0.9368   0.9556
     0.9769   1.0176   1.0400   1.0792   1.0998   1.1458   1.1560   1.1896
     1.2088   1.2259   1.2583   1.2674   1.3070   1.3270   1.3437   1.3765
     1.3988   1.4063   1.4460   1.4739   1.4911   1.5092   1.5357   1.5552
     1.5758   1.6053   1.6270   1.6463   1.6686   1.7017   1.7492   1.7733
     1.8119   1.8588   1.9042   1.9388   1.9800   2.0171   2.0747   2.1581
     2.1878   2.2089   2.3020   2.3291   2.5540   2.6767   2.7797   3.0406

          k = 0.1250 0.1250 0.3750 (132608 PWs)   bands (ev):

   -18.5721 -18.3602 -18.3600 -18.3530 -18.3483 -18.3481 -18.3475 -18.3446
   -18.3363 -18.3290 -18.3274 -18.3255 -18.3199 -18.3181 -18.3137 -18.2868
   -18.2805 -18.2783 -18.2724 -18.2688 -18.2682 -18.2665 -18.2651 -18.2617
   -18.2614 -18.2569 -18.2565 -18.2558 -18.2541 -18.2523 -18.2473 -18.2417
   -18.2402 -18.2310 -18.2282 -18.2263 -18.2242 -18.2164 -18.2163 -18.2138
   -18.2039 -18.2033 -18.1992 -18.1812 -18.1703 -18.1652 -18.1619 -18.1452
    -9.4319  -9.3595  -9.2906  -9.2605  -9.1965  -9.1214  -9.1015  -9.0787
    -9.0418  -9.0233  -8.9659  -8.9169  -8.8933  -8.8643  -8.8075  -8.7830
    -8.7666  -8.7324  -8.7018  -8.6603  -8.6128  -8.5662  -8.4785  -8.3698
    -5.3302  -5.3235  -5.3174  -5.1388  -5.1378  -5.1355  -5.1321  -5.1319
    -5.1264  -5.1234  -5.1194  -5.1092  -5.1071  -5.1043  -5.0955  -5.0372
    -5.0271  -5.0214  -5.0089  -5.0054  -5.0011  -4.9894  -4.9849  -4.9780
    -4.3466  -4.1212  -3.8236  -3.7696  -3.6005  -3.5334  -3.2010  -2.9616
    -0.7796  -0.6886  -0.6216  -0.6072  -0.5126  -0.4909  -0.4190  -0.3085
    -0.1535  -0.0661   0.0031   0.0372   0.3819   0.4449   0.4798   0.4999
     0.5530   0.6013   0.6170   0.6451   0.6967   0.7252   0.7494   0.8167
     0.8594   0.9181   0.9709   1.0218   1.0787   1.1221   1.1414   1.1606
     1.1934   1.2088   1.2317   1.2596   1.2808   1.3080   1.3436   1.3699
     1.3822   1.4187   1.4382   1.4452   1.4938   1.5193   1.5553   1.5750
     1.6040   1.6279   1.6564   1.6761   1.7095   1.7171   1.7710   1.8197
     1.8340   1.8723   1.9013   1.9184   1.9476   1.9625   2.0273   2.0743
     2.1534   2.1905   2.2489   2.3252   2.3904   2.5022   2.7738   2.8967

          k = 0.1250 0.3750 0.3750 (132616 PWs)   bands (ev):

   -18.5721 -18.3602 -18.3600 -18.3530 -18.3483 -18.3481 -18.3475 -18.3446
   -18.3363 -18.3290 -18.3274 -18.3255 -18.3199 -18.3180 -18.3137 -18.2868
   -18.2805 -18.2783 -18.2724 -18.2688 -18.2682 -18.2665 -18.2651 -18.2617
   -18.2614 -18.2569 -18.2565 -18.2558 -18.2541 -18.2523 -18.2473 -18.2417
   -18.2402 -18.2310 -18.2282 -18.2263 -18.2242 -18.2164 -18.2163 -18.2138
   -18.2039 -18.2033 -18.1992 -18.1812 -18.1703 -18.1652 -18.1619 -18.1452
    -9.4193  -9.3542  -9.2983  -9.2693  -9.2048  -9.1315  -9.1040  -9.0837
    -9.0381  -9.0199  -8.9529  -8.9075  -8.8868  -8.8671  -8.8270  -8.7819
    -8.7659  -8.7325  -8.6951  -8.6500  -8.6105  -8.5722  -8.4823  -8.3705
    -5.3302  -5.3234  -5.3174  -5.1382  -5.1369  -5.1358  -5.1334  -5.1317
    -5.1274  -5.1221  -5.1196  -5.1092  -5.1072  -5.1042  -5.0955  -5.0373
    -5.0271  -5.0214  -5.0088  -5.0054  -5.0010  -4.9894  -4.9851  -4.9780
    -4.2369  -4.0406  -3.9419  -3.7438  -3.6632  -3.4717  -3.3378  -3.1275
    -0.7594  -0.6532  -0.5698  -0.4763  -0.3292  -0.2958  -0.2412  -0.1245
    -0.0925   0.0038   0.0878   0.1158   0.3621   0.4301   0.4518   0.4828
     0.5061   0.5361   0.5617   0.6070   0.6462   0.6726   0.6951   0.7400
     0.8052   0.8527   0.9298   0.9638   1.0147   1.0518   1.0910   1.1199
     1.1435   1.1566   1.1868   1.2234   1.2338   1.2965   1.3251   1.3446
     1.3687   1.3986   1.4187   1.4671   1.4944   1.5341   1.5539   1.6113
     1.6310   1.6426   1.6802   1.7079   1.7384   1.7495   1.7951   1.8101
     1.8313   1.8542   1.8845   1.9076   1.9382   1.9635   1.9979   2.0386
     2.0822   2.1247   2.1610   2.2161   2.3133   2.4354   2.5474   2.6829

          k = 0.3750 0.3750 0.3750 (132612 PWs)   bands (ev):

   -18.5721 -18.3602 -18.3600 -18.3530 -18.3483 -18.3481 -18.3475 -18.3446
   -18.3363 -18.3290 -18.3274 -18.3255 -18.3199 -18.3180 -18.3137 -18.2868
   -18.2805 -18.2783 -18.2724 -18.2688 -18.2682 -18.2665 -18.2651 -18.2616
   -18.2614 -18.2569 -18.2565 -18.2558 -18.2542 -18.2523 -18.2473 -18.2417
   -18.2402 -18.2310 -18.2282 -18.2263 -18.2242 -18.2164 -18.2163 -18.2138
   -18.2039 -18.2033 -18.1992 -18.1812 -18.1703 -18.1652 -18.1619 -18.1452
    -9.3909  -9.3566  -9.3139  -9.2684  -9.2321  -9.1581  -9.1001  -9.0586
    -9.0430  -9.0070  -8.9455  -8.9034  -8.8899  -8.8755  -8.8316  -8.7774
    -8.7564  -8.7264  -8.6993  -8.6500  -8.6088  -8.5770  -8.4848  -8.3707
    -5.3303  -5.3236  -5.3173  -5.1384  -5.1366  -5.1343  -5.1328  -5.1311
    -5.1279  -5.1225  -5.1210  -5.1105  -5.1073  -5.1040  -5.0945  -5.0375
    -5.0270  -5.0209  -5.0090  -5.0048  -5.0011  -4.9911  -4.9846  -4.9766
    -4.1113  -3.9437  -3.8693  -3.7794  -3.6776  -3.6119  -3.4863  -3.3251
    -0.4728  -0.3643  -0.3523  -0.3191  -0.2768  -0.1895  -0.1412  -0.0874
    -0.0239   0.0188   0.0961   0.1761   0.3082   0.3490   0.3981   0.4442
     0.4838   0.4998   0.5267   0.5415   0.5848   0.6232   0.6329   0.7187
     0.8039   0.8352   0.9091   0.9365   0.9660   0.9954   1.0291   1.0631
     1.0814   1.1208   1.1466   1.1665   1.1975   1.2275   1.2733   1.3045
     1.3640   1.3903   1.4413   1.4677   1.4994   1.5216   1.5774   1.5992
     1.6579   1.6606   1.6879   1.7140   1.7492   1.7583   1.7905   1.8066
     1.8402   1.8645   1.8875   1.9028   1.9173   1.9464   1.9617   1.9848
     2.0262   2.0840   2.1144   2.1457   2.2050   2.2446   2.3299   2.4246

          k =-0.1250-0.1250 0.1250 (132670 PWs)   bands (ev):

   -18.5721 -18.3602 -18.3600 -18.3530 -18.3483 -18.3481 -18.3475 -18.3446
   -18.3363 -18.3290 -18.3274 -18.3255 -18.3199 -18.3181 -18.3137 -18.2868
   -18.2805 -18.2783 -18.2724 -18.2688 -18.2682 -18.2665 -18.2651 -18.2617
   -18.2614 -18.2569 -18.2565 -18.2558 -18.2541 -18.2523 -18.2473 -18.2417
   -18.2402 -18.2310 -18.2282 -18.2263 -18.2242 -18.2164 -18.2163 -18.2138
   -18.2039 -18.2033 -18.1992 -18.1812 -18.1703 -18.1652 -18.1619 -18.1452
    -9.4544  -9.3245  -9.2978  -9.2769  -9.1828  -9.1185  -9.1071  -9.0544
    -9.0401  -9.0270  -8.9572  -8.9182  -8.8978  -8.8752  -8.8201  -8.7927
    -8.7761  -8.7331  -8.6921  -8.6639  -8.6074  -8.5619  -8.4778  -8.3682
    -5.3303  -5.3235  -5.3175  -5.1407  -5.1382  -5.1366  -5.1323  -5.1311
    -5.1251  -5.1236  -5.1188  -5.1086  -5.1067  -5.1044  -5.0951  -5.0373
    -5.0273  -5.0195  -5.0086  -5.0050  -5.0027  -4.9887  -4.9855  -4.9777
    -4.4662  -3.9664  -3.9382  -3.8893  -3.4281  -3.3702  -3.3239  -2.7591
    -0.7855  -0.7693  -0.6698  -0.6294  -0.5884  -0.5455  -0.4945  -0.4394
    -0.4172  -0.2955  -0.2483  -0.1514   0.4191   0.4391   0.4506   0.5810
     0.6231   0.6939   0.7221   0.7559   0.7767   0.8864   0.9196   0.9665
     0.9695   1.0066   1.0423   1.0770   1.0980   1.1303   1.1489   1.1630
     1.2064   1.2267   1.2577   1.3186   1.3267   1.3383   1.3599   1.3832
     1.3994   1.4180   1.4376   1.4607   1.4798   1.5058   1.5271   1.5518
     1.5646   1.6000   1.6295   1.6501   1.6648   1.6920   1.7311   1.7770
     1.8236   1.8728   1.9068   1.9397   1.9926   2.0291   2.0892   2.1461
     2.1934   2.2127   2.2800   2.3148   2.5834   2.6577   2.7610   3.0637

          k =-0.1250 0.1250-0.1250 (132670 PWs)   bands (ev):

   -18.5721 -18.3602 -18.3600 -18.3530 -18.3483 -18.3481 -18.3475 -18.3446
   -18.3363 -18.3290 -18.3274 -18.3255 -18.3199 -18.3181 -18.3137 -18.2868
   -18.2805 -18.2783 -18.2724 -18.2688 -18.2682 -18.2665 -18.2651 -18.2617
   -18.2614 -18.2569 -18.2565 -18.2558 -18.2541 -18.2523 -18.2473 -18.2417
   -18.2402 -18.2310 -18.2282 -18.2263 -18.2242 -18.2164 -18.2163 -18.2138
   -18.2039 -18.2033 -18.1992 -18.1812 -18.1703 -18.1652 -18.1619 -18.1452
    -9.4534  -9.3309  -9.2985  -9.2701  -9.1802  -9.1168  -9.1112  -9.0564
    -9.0462  -9.0219  -8.9534  -8.9157  -8.8989  -8.8771  -8.8213  -8.7909
    -8.7817  -8.7294  -8.6928  -8.6629  -8.6076  -8.5617  -8.4779  -8.3683
    -5.3303  -5.3235  -5.3174  -5.1404  -5.1388  -5.1359  -5.1323  -5.1311
    -5.1255  -5.1235  -5.1188  -5.1089  -5.1068  -5.1044  -5.0948  -5.0374
    -5.0273  -5.0198  -5.0092  -5.0041  -5.0026  -4.9891  -4.9851  -4.9778
    -4.4657  -3.9659  -3.9516  -3.8749  -3.4351  -3.3758  -3.3114  -2.7613
    -0.7756  -0.7535  -0.6840  -0.6316  -0.6048  -0.5480  -0.4736  -0.4580
    -0.4199  -0.3035  -0.2397  -0.1407   0.4197   0.4338   0.4592   0.5937
     0.6175   0.6792   0.7187   0.7617   0.7856   0.8573   0.9158   0.9507
     0.9922   1.0309   1.0591   1.0885   1.1162   1.1176   1.1553   1.1726
     1.1944   1.2101   1.2465   1.2821   1.3202   1.3463   1.3714   1.3879
     1.4007   1.4187   1.4323   1.4541   1.4861   1.4948   1.5318   1.5433
     1.5592   1.5919   1.6155   1.6577   1.6853   1.6997   1.7369   1.7829
     1.8308   1.8700   1.8968   1.9564   1.9948   2.0280   2.0707   2.1422
     2.1778   2.2180   2.2919   2.3350   2.5883   2.6196   2.7752   3.0823

          k = 0.1250-0.1250-0.1250 (132670 PWs)   bands (ev):

   -18.5721 -18.3602 -18.3600 -18.3530 -18.3483 -18.3481 -18.3475 -18.3446
   -18.3363 -18.3290 -18.3274 -18.3255 -18.3199 -18.3181 -18.3137 -18.2868
   -18.2805 -18.2783 -18.2724 -18.2688 -18.2682 -18.2665 -18.2651 -18.2617
   -18.2614 -18.2569 -18.2565 -18.2558 -18.2541 -18.2523 -18.2473 -18.2417
   -18.2402 -18.2310 -18.2282 -18.2263 -18.2242 -18.2164 -18.2163 -18.2138
   -18.2039 -18.2033 -18.1992 -18.1812 -18.1703 -18.1652 -18.1619 -18.1452
    -9.4541  -9.3263  -9.2970  -9.2764  -9.1820  -9.1178  -9.1063  -9.0608
    -9.0366  -9.0275  -8.9516  -8.9223  -8.8987  -8.8753  -8.8191  -8.7904
    -8.7784  -8.7341  -8.6910  -8.6645  -8.6074  -8.5613  -8.4780  -8.3682
    -5.3303  -5.3235  -5.3175  -5.1399  -5.1387  -5.1365  -5.1322  -5.1312
    -5.1260  -5.1233  -5.1189  -5.1086  -5.1064  -5.1045  -5.0950  -5.0371
    -5.0274  -5.0196  -5.0086  -5.0052  -5.0026  -4.9887  -4.9855  -4.9777
    -4.4658  -3.9758  -3.9348  -3.8824  -3.4323  -3.3716  -3.3177  -2.7619
    -0.8052  -0.7229  -0.6815  -0.6291  -0.5850  -0.5587  -0.4878  -0.4411
    -0.4147  -0.2963  -0.2369  -0.1870   0.4217   0.4324   0.4582   0.5947
     0.6247   0.6817   0.7197   0.7503   0.7855   0.8650   0.9369   0.9485
     0.9734   1.0151   1.0508   1.0883   1.1206   1.1379   1.1624   1.1875
     1.1937   1.2178   1.2420   1.2739   1.3160   1.3417   1.3687   1.3830
     1.3981   1.4217   1.4444   1.4684   1.4932   1.5110   1.5294   1.5399
     1.5693   1.5899   1.6121   1.6426   1.6767   1.7004   1.7425   1.7925
     1.8199   1.8344   1.9104   1.9333   1.9884   2.0330   2.0801   2.1517
     2.1782   2.2289   2.2942   2.3281   2.6032   2.6235   2.7571   3.0571

          k =-0.1250-0.1250 0.3750 (132608 PWs)   bands (ev):

   -18.5721 -18.3602 -18.3600 -18.3530 -18.3483 -18.3481 -18.3475 -18.3446
   -18.3363 -18.3290 -18.3274 -18.3255 -18.3199 -18.3181 -18.3137 -18.2868
   -18.2805 -18.2783 -18.2724 -18.2688 -18.2682 -18.2665 -18.2651 -18.2617
   -18.2614 -18.2569 -18.2565 -18.2558 -18.2541 -18.2523 -18.2473 -18.2417
   -18.2402 -18.2310 -18.2282 -18.2263 -18.2242 -18.2164 -18.2163 -18.2138
   -18.2039 -18.2033 -18.1992 -18.1812 -18.1703 -18.1652 -18.1619 -18.1452
    -9.4340  -9.3539  -9.2906  -9.2645  -9.1966  -9.1266  -9.1003  -9.0751
    -9.0396  -9.0247  -8.9652  -8.9176  -8.8926  -8.8624  -8.8126  -8.7820
    -8.7668  -8.7257  -8.7078  -8.6595  -8.6124  -8.5664  -8.4785  -8.3698
    -5.3301  -5.3235  -5.3174  -5.1391  -5.1380  -5.1351  -5.1323  -5.1318
    -5.1260  -5.1236  -5.1194  -5.1090  -5.1067  -5.1043  -5.0958  -5.0372
    -5.0272  -5.0210  -5.0083  -5.0062  -5.0014  -4.9890  -4.9852  -4.9778
    -4.3478  -4.1178  -3.8266  -3.7722  -3.5994  -3.5275  -3.2106  -2.9549
    -0.7746  -0.7132  -0.6228  -0.6028  -0.5083  -0.4788  -0.4082  -0.3405
    -0.1323  -0.0764   0.0132   0.0692   0.3722   0.4263   0.4545   0.5178
     0.5465   0.5992   0.6170   0.6411   0.6834   0.7304   0.7679   0.8141
     0.8860   0.9163   0.9720   1.0054   1.0881   1.1053   1.1236   1.1331
     1.1737   1.2106   1.2526   1.2647   1.2981   1.3349   1.3521   1.3849
     1.3957   1.4117   1.4328   1.4495   1.4974   1.5179   1.5300   1.5642
     1.5843   1.6455   1.6623   1.6841   1.7052   1.7213   1.7629   1.7864
     1.8221   1.8651   1.9007   1.9246   1.9745   1.9965   2.0527   2.0830
     2.1413   2.1635   2.2544   2.2904   2.4327   2.4795   2.7633   2.9119

          k =-0.1250 0.1250-0.3750 (132608 PWs)   bands (ev):

   -18.5721 -18.3602 -18.3600 -18.3530 -18.3483 -18.3481 -18.3475 -18.3446
   -18.3363 -18.3290 -18.3274 -18.3255 -18.3199 -18.3181 -18.3137 -18.2868
   -18.2805 -18.2783 -18.2724 -18.2688 -18.2682 -18.2665 -18.2651 -18.2617
   -18.2614 -18.2569 -18.2565 -18.2558 -18.2541 -18.2523 -18.2473 -18.2417
   -18.2402 -18.2310 -18.2282 -18.2263 -18.2242 -18.2164 -18.2163 -18.2138
   -18.2039 -18.2033 -18.1992 -18.1812 -18.1703 -18.1652 -18.1619 -18.1452
    -9.4321  -9.3591  -9.2904  -9.2601  -9.1980  -9.1173  -9.1078  -9.0756
    -9.0448  -9.0235  -8.9594  -8.9174  -8.8952  -8.8629  -8.8109  -8.7838
    -8.7703  -8.7218  -8.7083  -8.6590  -8.6126  -8.5662  -8.4786  -8.3699
    -5.3302  -5.3235  -5.3174  -5.1391  -5.1381  -5.1348  -5.1323  -5.1316
    -5.1264  -5.1233  -5.1196  -5.1093  -5.1067  -5.1042  -5.0955  -5.0373
    -5.0271  -5.0213  -5.0090  -5.0053  -5.0012  -4.9894  -4.9850  -4.9779
    -4.3467  -4.1198  -3.8294  -3.7660  -3.6054  -3.5253  -3.2053  -2.9593
    -0.7638  -0.7125  -0.6310  -0.5764  -0.5092  -0.5008  -0.4293  -0.3480
    -0.1363  -0.0589   0.0217   0.0740   0.3784   0.4412   0.4542   0.4908
     0.5528   0.5981   0.6279   0.6448   0.6789   0.7238   0.7610   0.8195
     0.8705   0.9336   0.9840   1.0033   1.0678   1.0811   1.1332   1.1728
     1.1906   1.2211   1.2445   1.2567   1.2756   1.3031   1.3378   1.3697
     1.3971   1.4116   1.4369   1.4566   1.4983   1.5218   1.5498   1.5620
     1.5922   1.6350   1.6664   1.6811   1.7077   1.7228   1.7651   1.8086
     1.8216   1.8783   1.8950   1.9290   1.9640   1.9900   2.0213   2.0883
     2.1493   2.1615   2.2657   2.3305   2.3903   2.4770   2.7683   2.9194

          k = 0.1250-0.1250-0.3750 (132608 PWs)   bands (ev):

   -18.5721 -18.3602 -18.3600 -18.3530 -18.3483 -18.3481 -18.3475 -18.3446
   -18.3363 -18.3290 -18.3274 -18.3255 -18.3199 -18.3181 -18.3137 -18.2868
   -18.2805 -18.2783 -18.2724 -18.2688 -18.2682 -18.2665 -18.2651 -18.2617
   -18.2614 -18.2569 -18.2565 -18.2558 -18.2541 -18.2523 -18.2473 -18.2417
   -18.2402 -18.2310 -18.2282 -18.2263 -18.2242 -18.2164 -18.2163 -18.2138
   -18.2039 -18.2033 -18.1992 -18.1812 -18.1703 -18.1652 -18.1619 -18.1452
    -9.4337  -9.3543  -9.2910  -9.2645  -9.1973  -9.1220  -9.0969  -9.0822
    -9.0396  -9.0269  -8.9578  -8.9205  -8.8954  -8.8644  -8.8089  -8.7831
    -8.7626  -8.7339  -8.7031  -8.6605  -8.6123  -8.5658  -8.4787  -8.3698
    -5.3301  -5.3235  -5.3174  -5.1389  -5.1374  -5.1356  -5.1324  -5.1318
    -5.1268  -5.1231  -5.1197  -5.1091  -5.1064  -5.1043  -5.0958  -5.0370
    -5.0272  -5.0211  -5.0084  -5.0062  -5.0014  -4.9890  -4.9853  -4.9778
    -4.3472  -4.1186  -3.8296  -3.7677  -3.6062  -3.5212  -3.2074  -2.9597
    -0.7807  -0.6945  -0.6314  -0.5719  -0.5268  -0.4912  -0.4217  -0.3021
    -0.1462  -0.0735  -0.0063   0.0319   0.3755   0.4428   0.4734   0.5167
     0.5587   0.5917   0.6168   0.6493   0.6907   0.7262   0.7712   0.8131
     0.8687   0.9236   0.9770   1.0148   1.0655   1.1026   1.1179   1.1707
     1.1947   1.2105   1.2385   1.2617   1.2755   1.3049   1.3388   1.3664
     1.4001   1.4194   1.4469   1.4685   1.5009   1.5266   1.5391   1.5603
     1.6108   1.6287   1.6594   1.6797   1.6860   1.7242   1.7721   1.8103
     1.8247   1.8596   1.9013   1.9054   1.9625   1.9818   2.0543   2.0821
     2.1372   2.1903   2.2470   2.3126   2.4291   2.4671   2.7731   2.8920

          k = 0.3750-0.1250 0.1250 (132608 PWs)   bands (ev):

   -18.5721 -18.3602 -18.3600 -18.3530 -18.3483 -18.3481 -18.3475 -18.3446
   -18.3363 -18.3290 -18.3274 -18.3255 -18.3199 -18.3181 -18.3137 -18.2868
   -18.2804 -18.2783 -18.2724 -18.2688 -18.2682 -18.2665 -18.2651 -18.2616
   -18.2614 -18.2569 -18.2565 -18.2558 -18.2542 -18.2523 -18.2473 -18.2417
   -18.2402 -18.2310 -18.2282 -18.2263 -18.2242 -18.2164 -18.2163 -18.2138
   -18.2039 -18.2033 -18.1992 -18.1812 -18.1703 -18.1652 -18.1619 -18.1452
    -9.4259  -9.3601  -9.2985  -9.2610  -9.2138  -9.1242  -9.1007  -9.0598
    -9.0365  -9.0135  -8.9458  -8.9109  -8.8983  -8.8836  -8.8229  -8.7947
    -8.7753  -8.7227  -8.6918  -8.6628  -8.6051  -8.5666  -8.4823  -8.3686
    -5.3302  -5.3236  -5.3174  -5.1395  -5.1366  -5.1350  -5.1318  -5.1305
    -5.1261  -5.1243  -5.1197  -5.1107  -5.1072  -5.1047  -5.0944  -5.0373
    -5.0267  -5.0199  -5.0091  -5.0048  -5.0020  -4.9913  -4.9852  -4.9766
    -4.3379  -4.0933  -3.8296  -3.7824  -3.5802  -3.5509  -3.2346  -2.9979
    -0.7649  -0.6621  -0.6293  -0.5310  -0.4984  -0.4345  -0.3475  -0.2799
    -0.2305  -0.0682  -0.0375   0.0769   0.3681   0.4462   0.4572   0.4989
     0.5383   0.5679   0.5933   0.6473   0.6955   0.7206   0.7517   0.7913
     0.8668   0.9464   0.9628   1.0432   1.0782   1.0921   1.1292   1.1464
     1.1743   1.1962   1.2759   1.2783   1.3100   1.3275   1.3551   1.3849
     1.4068   1.4355   1.4611   1.4798   1.5051   1.5237   1.5488   1.5614
     1.6001   1.6149   1.6378   1.6666   1.6834   1.7028   1.7528   1.7600
     1.8317   1.8586   1.8728   1.9002   1.9291   1.9741   1.9937   2.1033
     2.1344   2.1686   2.2652   2.3004   2.3869   2.4625   2.6968   2.8419

          k =-0.3750-0.1250-0.1250 (132608 PWs)   bands (ev):

   -18.5721 -18.3602 -18.3600 -18.3530 -18.3483 -18.3481 -18.3475 -18.3446
   -18.3363 -18.3290 -18.3274 -18.3255 -18.3199 -18.3181 -18.3137 -18.2868
   -18.2804 -18.2783 -18.2724 -18.2688 -18.2682 -18.2665 -18.2651 -18.2616
   -18.2614 -18.2569 -18.2565 -18.2558 -18.2542 -18.2523 -18.2473 -18.2417
   -18.2402 -18.2310 -18.2282 -18.2263 -18.2242 -18.2164 -18.2163 -18.2138
   -18.2039 -18.2033 -18.1992 -18.1812 -18.1703 -18.1652 -18.1619 -18.1452
    -9.4259  -9.3590  -9.3008  -9.2613  -9.2125  -9.1220  -9.1004  -9.0610
    -9.0361  -9.0131  -8.9486  -8.9113  -8.9009  -8.8846  -8.8170  -8.7908
    -8.7771  -8.7268  -8.6892  -8.6642  -8.6053  -8.5667  -8.4822  -8.3686
    -5.3302  -5.3236  -5.3174  -5.1395  -5.1369  -5.1344  -5.1314  -5.1310
    -5.1264  -5.1244  -5.1195  -5.1105  -5.1076  -5.1048  -5.0944  -5.0373
    -5.0267  -5.0201  -5.0090  -5.0049  -5.0019  -4.9912  -4.9852  -4.9766
    -4.3385  -4.0910  -3.8366  -3.7792  -3.5805  -3.5451  -3.2386  -2.9974
    -0.7603  -0.6696  -0.6334  -0.5359  -0.4762  -0.4220  -0.3585  -0.2812
    -0.2231  -0.0766  -0.0591   0.0805   0.3609   0.4438   0.4525   0.4995
     0.5456   0.5766   0.6072   0.6467   0.6854   0.7074   0.7675   0.8050
     0.8482   0.9116   0.9838   1.0209   1.0683   1.1005   1.1513   1.1715
     1.2074   1.2262   1.2489   1.2940   1.3068   1.3263   1.3311   1.3750
     1.4014   1.4231   1.4547   1.4777   1.5082   1.5325   1.5580   1.5780
     1.6092   1.6255   1.6398   1.6538   1.6885   1.7083   1.7243   1.7864
     1.8143   1.8434   1.8494   1.9047   1.9246   1.9533   1.9824   2.1300
     2.1476   2.1685   2.2479   2.3043   2.4322   2.4457   2.7191   2.7936

          k = 0.3750 0.1250-0.1250 (132608 PWs)   bands (ev):

   -18.5721 -18.3602 -18.3600 -18.3530 -18.3483 -18.3481 -18.3475 -18.3446
   -18.3363 -18.3290 -18.3274 -18.3255 -18.3199 -18.3181 -18.3137 -18.2868
   -18.2804 -18.2783 -18.2724 -18.2688 -18.2682 -18.2665 -18.2651 -18.2617
   -18.2614 -18.2569 -18.2565 -18.2558 -18.2542 -18.2523 -18.2473 -18.2417
   -18.2402 -18.2310 -18.2282 -18.2263 -18.2242 -18.2164 -18.2163 -18.2138
   -18.2039 -18.2033 -18.1992 -18.1812 -18.1703 -18.1652 -18.1619 -18.1452
    -9.4284  -9.3522  -9.3010  -9.2666  -9.2118  -9.1255  -9.1004  -9.0566
    -9.0350  -9.0142  -8.9498  -8.9139  -8.8982  -8.8797  -8.8213  -8.7967
    -8.7708  -8.7257  -8.6911  -8.6639  -8.6049  -8.5668  -8.4822  -8.3685
    -5.3302  -5.3236  -5.3174  -5.1396  -5.1369  -5.1347  -5.1317  -5.1310
    -5.1261  -5.1241  -5.1196  -5.1104  -5.1071  -5.1050  -5.0946  -5.0373
    -5.0268  -5.0196  -5.0084  -5.0058  -5.0023  -4.9908  -4.9854  -4.9765
    -4.3396  -4.0879  -3.8320  -3.7882  -3.5875  -3.5335  -3.2456  -2.9921
    -0.7660  -0.6691  -0.6350  -0.5306  -0.4919  -0.4348  -0.3575  -0.2565
    -0.1977  -0.0788  -0.0570   0.0689   0.3434   0.4394   0.4554   0.4985
     0.5515   0.5840   0.5987   0.6478   0.6794   0.7215   0.7787   0.8008
     0.8494   0.9340   0.9608   1.0251   1.0749   1.0944   1.1300   1.1549
     1.1782   1.2138   1.2553   1.2937   1.3121   1.3320   1.3545   1.3964
     1.4078   1.4330   1.4681   1.4706   1.4928   1.5325   1.5601   1.5694
     1.5904   1.6108   1.6414   1.6701   1.6876   1.6994   1.7571   1.7726
     1.8021   1.8354   1.8711   1.9014   1.9306   1.9634   2.0082   2.1201
     2.1407   2.1624   2.2596   2.2921   2.3830   2.4796   2.6956   2.8306

          k =-0.3750 0.1250 0.1250 (132608 PWs)   bands (ev):

   -18.5721 -18.3602 -18.3600 -18.3530 -18.3483 -18.3481 -18.3475 -18.3446
   -18.3363 -18.3290 -18.3274 -18.3255 -18.3199 -18.3181 -18.3137 -18.2868
   -18.2804 -18.2783 -18.2724 -18.2688 -18.2682 -18.2665 -18.2651 -18.2616
   -18.2614 -18.2569 -18.2565 -18.2558 -18.2542 -18.2523 -18.2473 -18.2417
   -18.2402 -18.2310 -18.2282 -18.2263 -18.2242 -18.2164 -18.2163 -18.2138
   -18.2039 -18.2033 -18.1992 -18.1812 -18.1703 -18.1652 -18.1619 -18.1452
    -9.4279  -9.3537  -9.3012  -9.2658  -9.2106  -9.1269  -9.0987  -9.0584
    -9.0354  -9.0150  -8.9431  -8.9154  -8.8979  -8.8859  -8.8207  -8.7911
    -8.7740  -8.7264  -8.6913  -8.6638  -8.6048  -8.5664  -8.4823  -8.3685
    -5.3302  -5.3236  -5.3174  -5.1395  -5.1362  -5.1348  -5.1319  -5.1307
    -5.1265  -5.1245  -5.1197  -5.1104  -5.1067  -5.1051  -5.0946  -5.0371
    -5.0269  -5.0197  -5.0083  -5.0059  -5.0023  -4.9908  -4.9854  -4.9765
    -4.3385  -4.0914  -3.8360  -3.7791  -3.5905  -3.5322  -3.2438  -2.9957
    -0.7600  -0.6696  -0.6327  -0.5297  -0.4898  -0.4246  -0.3427  -0.2874
    -0.2159  -0.0700  -0.0536   0.0582   0.3485   0.4395   0.4558   0.4994
     0.5539   0.5812   0.5909   0.6521   0.6884   0.7175   0.7573   0.8072
     0.8503   0.9313   0.9729   1.0383   1.0692   1.1005   1.1418   1.1614
     1.1992   1.2114   1.2413   1.2792   1.3201   1.3369   1.3550   1.3890
     1.4156   1.4202   1.4549   1.4745   1.5124   1.5322   1.5540   1.5765
     1.5983   1.6153   1.6383   1.6476   1.6807   1.6953   1.7497   1.7633
     1.8095   1.8411   1.8697   1.8921   1.9334   1.9753   2.0079   2.1047
     2.1342   2.1644   2.2715   2.3055   2.4120   2.4594   2.6799   2.8223

          k =-0.1250 0.3750 0.1250 (132608 PWs)   bands (ev):

   -18.5721 -18.3602 -18.3600 -18.3530 -18.3483 -18.3481 -18.3475 -18.3446
   -18.3363 -18.3290 -18.3274 -18.3255 -18.3199 -18.3181 -18.3137 -18.2868
   -18.2805 -18.2783 -18.2724 -18.2688 -18.2682 -18.2665 -18.2651 -18.2617
   -18.2614 -18.2569 -18.2565 -18.2558 -18.2541 -18.2523 -18.2473 -18.2417
   -18.2402 -18.2310 -18.2282 -18.2263 -18.2242 -18.2164 -18.2163 -18.2138
   -18.2039 -18.2033 -18.1992 -18.1812 -18.1703 -18.1652 -18.1619 -18.1452
    -9.4416  -9.3293  -9.2999  -9.2788  -9.1920  -9.1359  -9.1075  -9.0588
    -9.0320  -9.0245  -8.9397  -8.9174  -8.8932  -8.8731  -8.8298  -8.7967
    -8.7789  -8.7341  -8.6871  -8.6485  -8.6069  -8.5691  -8.4815  -8.3691
    -5.3303  -5.3234  -5.3174  -5.1384  -5.1375  -5.1348  -5.1325  -5.1314
    -5.1284  -5.1230  -5.1192  -5.1091  -5.1067  -5.1045  -5.0950  -5.0374
    -5.0276  -5.0199  -5.0086  -5.0052  -5.0026  -4.9888  -4.9857  -4.9777
    -4.3554  -4.0942  -3.8452  -3.7895  -3.5683  -3.5140  -3.2439  -2.9488
    -0.7806  -0.6880  -0.6192  -0.5895  -0.5682  -0.4858  -0.4089  -0.3186
    -0.2201  -0.0658  -0.0315   0.1415   0.4196   0.4354   0.4901   0.5011
     0.5438   0.5562   0.6117   0.6842   0.6889   0.7122   0.7812   0.8427
     0.9310   0.9456   0.9891   1.0109   1.0468   1.0994   1.1081   1.1636
     1.1739   1.2011   1.2396   1.2611   1.3081   1.3379   1.3826   1.4001
     1.4228   1.4272   1.4513   1.4677   1.4948   1.5167   1.5378   1.5667
     1.6020   1.6217   1.6562   1.6752   1.6965   1.7125   1.7356   1.7823
     1.8144   1.8405   1.8691   1.8941   1.9519   1.9943   2.0319   2.1013
     2.1352   2.1673   2.2541   2.3402   2.3814   2.4830   2.6842   2.8225

          k =-0.1250-0.3750-0.1250 (132608 PWs)   bands (ev):

   -18.5721 -18.3602 -18.3600 -18.3530 -18.3483 -18.3481 -18.3475 -18.3446
   -18.3363 -18.3290 -18.3274 -18.3255 -18.3199 -18.3180 -18.3137 -18.2868
   -18.2805 -18.2783 -18.2724 -18.2688 -18.2682 -18.2665 -18.2651 -18.2617
   -18.2614 -18.2569 -18.2565 -18.2558 -18.2541 -18.2523 -18.2473 -18.2417
   -18.2402 -18.2310 -18.2282 -18.2263 -18.2242 -18.2164 -18.2163 -18.2138
   -18.2039 -18.2033 -18.1992 -18.1812 -18.1703 -18.1652 -18.1619 -18.1452
    -9.4407  -9.3285  -9.3088  -9.2737  -9.1886  -9.1285  -9.1127  -9.0594
    -9.0388  -9.0199  -8.9447  -8.9153  -8.8925  -8.8740  -8.8263  -8.7986
    -8.7767  -8.7349  -8.6870  -8.6483  -8.6073  -8.5695  -8.4813  -8.3692
    -5.3303  -5.3234  -5.3174  -5.1386  -5.1371  -5.1359  -5.1323  -5.1315
    -5.1275  -5.1231  -5.1188  -5.1093  -5.1073  -5.1043  -5.0948  -5.0376
    -5.0274  -5.0202  -5.0091  -5.0043  -5.0023  -4.9891  -4.9854  -4.9779
    -4.3558  -4.0905  -3.8570  -3.7820  -3.5761  -3.5022  -3.2476  -2.9479
    -0.7601  -0.6872  -0.6261  -0.6147  -0.5920  -0.4748  -0.3915  -0.3167
    -0.2118  -0.0765  -0.0161   0.1391   0.4199   0.4414   0.4653   0.4932
     0.5370   0.5820   0.6152   0.6876   0.7017   0.7185   0.7820   0.8273
     0.8905   0.9528   0.9801   1.0196   1.0621   1.1055   1.1242   1.1494
     1.1874   1.2128   1.2491   1.2656   1.2904   1.3220   1.3524   1.3823
     1.4074   1.4287   1.4650   1.4807   1.5028   1.5255   1.5495   1.5646
     1.5995   1.6232   1.6671   1.6849   1.7007   1.7112   1.7290   1.7781
     1.8135   1.8407   1.8793   1.9004   1.9531   1.9780   2.0202   2.0926
     2.1373   2.1662   2.2393   2.3409   2.3845   2.4939   2.7324   2.7877

          k = 0.1250 0.3750-0.1250 (132608 PWs)   bands (ev):

   -18.5721 -18.3602 -18.3600 -18.3530 -18.3483 -18.3481 -18.3475 -18.3446
   -18.3363 -18.3290 -18.3274 -18.3255 -18.3199 -18.3180 -18.3137 -18.2868
   -18.2805 -18.2783 -18.2724 -18.2688 -18.2682 -18.2665 -18.2651 -18.2617
   -18.2614 -18.2569 -18.2565 -18.2558 -18.2541 -18.2523 -18.2473 -18.2417
   -18.2402 -18.2310 -18.2282 -18.2263 -18.2242 -18.2164 -18.2163 -18.2138
   -18.2039 -18.2033 -18.1992 -18.1812 -18.1703 -18.1652 -18.1619 -18.1452
    -9.4419  -9.3266  -9.3018  -9.2791  -9.1925  -9.1358  -9.1084  -9.0563
    -9.0316  -9.0251  -8.9445  -8.9148  -8.8922  -8.8719  -8.8302  -8.7997
    -8.7766  -8.7334  -8.6880  -8.6477  -8.6069  -8.5699  -8.4813  -8.3691
    -5.3303  -5.3235  -5.3174  -5.1391  -5.1372  -5.1352  -5.1325  -5.1315
    -5.1271  -5.1233  -5.1190  -5.1090  -5.1070  -5.1044  -5.0950  -5.0375
    -5.0275  -5.0198  -5.0086  -5.0050  -5.0027  -4.9888  -4.9857  -4.9777
    -4.3564  -4.0902  -3.8493  -3.7908  -3.5660  -3.5118  -3.2497  -2.9442
    -0.7771  -0.6896  -0.6250  -0.6079  -0.5579  -0.4912  -0.4132  -0.3182
    -0.1983  -0.0773  -0.0284   0.1881   0.4135   0.4325   0.4715   0.4987
     0.5194   0.5671   0.6149   0.6856   0.7118   0.7415   0.7620   0.8098
     0.9075   0.9445   0.9834   1.0173   1.0278   1.1010   1.1133   1.1487
     1.1895   1.2119   1.2389   1.2839   1.3112   1.3623   1.3705   1.3850
     1.3958   1.4322   1.4530   1.4888   1.5057   1.5217   1.5411   1.5533
     1.5974   1.6149   1.6614   1.6786   1.6870   1.7125   1.7376   1.7617
     1.8029   1.8573   1.8904   1.9041   1.9689   1.9900   2.0334   2.0872
     2.1238   2.1744   2.2492   2.3072   2.3944   2.4928   2.7063   2.8152

          k = 0.1250-0.3750 0.1250 (132608 PWs)   bands (ev):

   -18.5721 -18.3602 -18.3600 -18.3530 -18.3483 -18.3481 -18.3475 -18.3446
   -18.3363 -18.3290 -18.3274 -18.3255 -18.3199 -18.3180 -18.3137 -18.2868
   -18.2805 -18.2783 -18.2724 -18.2688 -18.2682 -18.2665 -18.2651 -18.2617
   -18.2614 -18.2569 -18.2565 -18.2558 -18.2541 -18.2523 -18.2473 -18.2417
   -18.2402 -18.2310 -18.2282 -18.2263 -18.2242 -18.2164 -18.2163 -18.2138
   -18.2039 -18.2033 -18.1992 -18.1812 -18.1703 -18.1652 -18.1619 -18.1452
    -9.4408  -9.3297  -9.3080  -9.2719  -9.1887  -9.1323  -9.1124  -9.0598
    -9.0376  -9.0203  -8.9401  -8.9147  -8.8907  -8.8745  -8.8344  -8.7951
    -8.7797  -8.7313  -8.6893  -8.6469  -8.6071  -8.5696  -8.4814  -8.3692
    -5.3303  -5.3234  -5.3174  -5.1386  -5.1379  -5.1349  -5.1323  -5.1315
    -5.1278  -5.1230  -5.1190  -5.1094  -5.1070  -5.1043  -5.0948  -5.0376
    -5.0274  -5.0201  -5.0092  -5.0041  -5.0025  -4.9892  -4.9854  -4.9779
    -4.3554  -4.0916  -3.8578  -3.7797  -3.5747  -3.5046  -3.2483  -2.9465
    -0.7546  -0.6859  -0.6488  -0.6136  -0.5846  -0.4623  -0.4055  -0.3192
    -0.2065  -0.0737  -0.0371   0.1941   0.4142   0.4352   0.4830   0.5013
     0.5346   0.5544   0.6076   0.6797   0.7031   0.7273   0.7647   0.8234
     0.8990   0.9293   1.0036   1.0125   1.0688   1.0944   1.1239   1.1504
     1.1803   1.2141   1.2360   1.2896   1.3011   1.3380   1.3564   1.3773
     1.4101   1.4345   1.4657   1.4793   1.4877   1.5163   1.5384   1.5715
     1.5903   1.6124   1.6461   1.6649   1.6934   1.7285   1.7527   1.7768
     1.7993   1.8608   1.8940   1.9062   1.9690   2.0010   2.0243   2.0818
     2.1136   2.1567   2.2670   2.3252   2.3884   2.4824   2.6872   2.8456

          k =-0.1250-0.3750 0.3750 (132616 PWs)   bands (ev):

   -18.5721 -18.3602 -18.3600 -18.3530 -18.3483 -18.3481 -18.3475 -18.3446
   -18.3363 -18.3290 -18.3274 -18.3255 -18.3199 -18.3180 -18.3137 -18.2868
   -18.2805 -18.2783 -18.2724 -18.2688 -18.2682 -18.2665 -18.2651 -18.2617
   -18.2614 -18.2569 -18.2565 -18.2558 -18.2541 -18.2523 -18.2473 -18.2417
   -18.2402 -18.2310 -18.2282 -18.2263 -18.2242 -18.2164 -18.2163 -18.2138
   -18.2039 -18.2033 -18.1992 -18.1812 -18.1703 -18.1652 -18.1619 -18.1452
    -9.4219  -9.3482  -9.2975  -9.2717  -9.2063  -9.1408  -9.1015  -9.0792
    -9.0320  -9.0234  -8.9517  -8.9104  -8.8849  -8.8644  -8.8301  -8.7818
    -8.7687  -8.7296  -8.6962  -8.6495  -8.6100  -8.5726  -8.4822  -8.3704
    -5.3302  -5.3235  -5.3174  -5.1387  -5.1375  -5.1347  -5.1334  -5.1317
    -5.1273  -5.1224  -5.1195  -5.1090  -5.1069  -5.1042  -5.0958  -5.0373
    -5.0272  -5.0210  -5.0081  -5.0062  -5.0013  -4.9891  -4.9854  -4.9779
    -4.2390  -4.0309  -3.9526  -3.7330  -3.6696  -3.4706  -3.3469  -3.1203
    -0.7656  -0.6565  -0.5637  -0.4582  -0.3807  -0.2778  -0.2218  -0.1591
    -0.0775   0.0076   0.0610   0.2675   0.3276   0.4009   0.4131   0.4484
     0.4943   0.5474   0.5608   0.6097   0.6387   0.6685   0.6884   0.7749
     0.8192   0.8854   0.9178   0.9688   0.9876   1.0319   1.0591   1.0893
     1.1376   1.1746   1.2120   1.2464   1.2692   1.2846   1.3208   1.3464
     1.3579   1.4130   1.4288   1.4626   1.5022   1.5244   1.5523   1.6050
     1.6239   1.6696   1.6799   1.7038   1.7258   1.7610   1.7735   1.7791
     1.8109   1.8508   1.8876   1.9251   1.9653   1.9703   2.0200   2.0462
     2.0913   2.1201   2.1584   2.2019   2.3148   2.4082   2.5576   2.6871

          k =-0.1250 0.3750-0.3750 (132616 PWs)   bands (ev):

   -18.5721 -18.3602 -18.3600 -18.3530 -18.3483 -18.3481 -18.3475 -18.3446
   -18.3363 -18.3290 -18.3274 -18.3255 -18.3199 -18.3180 -18.3137 -18.2868
   -18.2805 -18.2783 -18.2724 -18.2688 -18.2682 -18.2665 -18.2651 -18.2617
   -18.2614 -18.2569 -18.2565 -18.2558 -18.2541 -18.2523 -18.2473 -18.2417
   -18.2402 -18.2310 -18.2282 -18.2263 -18.2242 -18.2164 -18.2163 -18.2138
   -18.2039 -18.2033 -18.1992 -18.1812 -18.1703 -18.1652 -18.1619 -18.1452
    -9.4197  -9.3534  -9.2983  -9.2689  -9.2062  -9.1297  -9.1079  -9.0812
    -9.0394  -9.0212  -8.9435  -8.9144  -8.8849  -8.8658  -8.8302  -8.7825
    -8.7690  -8.7265  -8.6983  -8.6488  -8.6101  -8.5723  -8.4824  -8.3705
    -5.3302  -5.3234  -5.3174  -5.1382  -5.1379  -5.1350  -5.1330  -5.1317
    -5.1276  -5.1219  -5.1198  -5.1093  -5.1069  -5.1041  -5.0955  -5.0373
    -5.0271  -5.0213  -5.0089  -5.0052  -5.0011  -4.9895  -4.9851  -4.9780
    -4.2375  -4.0307  -3.9553  -3.7432  -3.6595  -3.4665  -3.3465  -3.1242
    -0.7574  -0.6521  -0.5606  -0.4784  -0.3795  -0.2866  -0.2258  -0.1623
    -0.0668   0.0120   0.0572   0.2784   0.3298   0.4146   0.4211   0.4545
     0.4976   0.5226   0.5663   0.6054   0.6281   0.6617   0.7029   0.7814
     0.8114   0.8775   0.9154   0.9616   0.9823   1.0112   1.0962   1.1092
     1.1451   1.1784   1.2118   1.2172   1.2455   1.3052   1.3194   1.3375
     1.3821   1.3973   1.4180   1.4650   1.4897   1.5144   1.5656   1.6121
     1.6309   1.6488   1.6889   1.7019   1.7404   1.7515   1.7621   1.8011
     1.8231   1.8391   1.9045   1.9235   1.9651   1.9733   2.0055   2.0490
     2.0776   2.1141   2.1724   2.2018   2.3213   2.4034   2.5500   2.6996

          k = 0.1250-0.3750-0.3750 (132616 PWs)   bands (ev):

   -18.5721 -18.3602 -18.3600 -18.3530 -18.3483 -18.3481 -18.3475 -18.3446
   -18.3363 -18.3290 -18.3274 -18.3255 -18.3199 -18.3180 -18.3137 -18.2868
   -18.2805 -18.2783 -18.2724 -18.2688 -18.2682 -18.2665 -18.2651 -18.2617
   -18.2614 -18.2569 -18.2565 -18.2558 -18.2541 -18.2523 -18.2473 -18.2417
   -18.2402 -18.2310 -18.2282 -18.2263 -18.2242 -18.2164 -18.2163 -18.2138
   -18.2039 -18.2033 -18.1992 -18.1812 -18.1703 -18.1652 -18.1619 -18.1452
    -9.4214  -9.3491  -9.2975  -9.2714  -9.2078  -9.1368  -9.0991  -9.0831
    -9.0333  -9.0251  -8.9442  -8.9131  -8.8892  -8.8663  -8.8263  -8.7828
    -8.7654  -8.7337  -8.6940  -8.6509  -8.6098  -8.5718  -8.4825  -8.3704
    -5.3302  -5.3235  -5.3174  -5.1383  -5.1369  -5.1352  -5.1335  -5.1316
    -5.1280  -5.1219  -5.1200  -5.1090  -5.1066  -5.1042  -5.0958  -5.0371
    -5.0273  -5.0211  -5.0082  -5.0062  -5.0014  -4.9891  -4.9854  -4.9778
    -4.2374  -4.0406  -3.9411  -3.7413  -3.6671  -3.4713  -3.3364  -3.1286
    -0.7679  -0.6551  -0.5531  -0.4587  -0.3482  -0.2856  -0.2496  -0.1262
    -0.0972  -0.0013   0.0791   0.1197   0.3509   0.4341   0.4477   0.4908
     0.5194   0.5413   0.5720   0.6003   0.6225   0.6706   0.7008   0.7645
     0.8043   0.8725   0.9367   0.9615   0.9897   1.0489   1.0671   1.0991
     1.1252   1.1676   1.1839   1.2292   1.2599   1.2914   1.3187   1.3612
     1.3923   1.4094   1.4302   1.4650   1.4697   1.5352   1.5641   1.5985
     1.6308   1.6445   1.6821   1.7075   1.7314   1.7540   1.7686   1.8081
     1.8262   1.8476   1.8838   1.9031   1.9377   1.9817   2.0095   2.0501
     2.0874   2.1430   2.1747   2.2002   2.3021   2.4156   2.5552   2.6761

          k = 0.3750 0.1250-0.3750 (132616 PWs)   bands (ev):

   -18.5721 -18.3602 -18.3600 -18.3530 -18.3483 -18.3481 -18.3475 -18.3446
   -18.3363 -18.3290 -18.3274 -18.3255 -18.3199 -18.3181 -18.3137 -18.2868
   -18.2804 -18.2783 -18.2724 -18.2688 -18.2682 -18.2665 -18.2651 -18.2616
   -18.2614 -18.2569 -18.2565 -18.2558 -18.2542 -18.2523 -18.2473 -18.2417
   -18.2402 -18.2310 -18.2282 -18.2263 -18.2242 -18.2164 -18.2163 -18.2138
   -18.2039 -18.2033 -18.1992 -18.1812 -18.1703 -18.1652 -18.1619 -18.1452
    -9.4088  -9.3405  -9.3308  -9.2666  -9.2132  -9.1384  -9.1002  -9.0596
    -9.0374  -9.0169  -8.9633  -8.9081  -8.8910  -8.8717  -8.8175  -8.7824
    -8.7517  -8.7267  -8.7076  -8.6611  -8.6087  -8.5704  -8.4829  -8.3697
    -5.3302  -5.3237  -5.3174  -5.1387  -5.1366  -5.1340  -5.1323  -5.1305
    -5.1272  -5.1238  -5.1208  -5.1107  -5.1074  -5.1043  -5.0945  -5.0374
    -5.0273  -5.0206  -5.0088  -5.0055  -5.0017  -4.9909  -4.9849  -4.9765
    -4.2218  -4.0003  -3.9671  -3.7437  -3.6669  -3.4501  -3.3958  -3.1638
    -0.7041  -0.5544  -0.5389  -0.4346  -0.3583  -0.2711  -0.2061  -0.1214
    -0.0461  -0.0271   0.0423   0.1399   0.2912   0.3763   0.4413   0.4859
     0.4992   0.5528   0.5827   0.5981   0.6233   0.6464   0.6995   0.7366
     0.8127   0.8608   0.9125   0.9344   0.9903   1.0326   1.0509   1.0625
     1.1222   1.1747   1.2057   1.2420   1.2571   1.2806   1.3229   1.3568
     1.3798   1.4158   1.4570   1.4833   1.5191   1.5266   1.5600   1.5982
     1.6123   1.6520   1.6703   1.6957   1.7151   1.7229   1.7682   1.7905
     1.8248   1.8456   1.8923   1.9247   1.9388   1.9639   1.9962   2.0609
     2.0850   2.1481   2.1604   2.2174   2.3041   2.4195   2.4979   2.6705

          k =-0.3750-0.1250-0.3750 (132616 PWs)   bands (ev):

   -18.5721 -18.3602 -18.3600 -18.3530 -18.3483 -18.3481 -18.3475 -18.3446
   -18.3363 -18.3290 -18.3274 -18.3255 -18.3199 -18.3181 -18.3137 -18.2868
   -18.2804 -18.2783 -18.2724 -18.2688 -18.2682 -18.2665 -18.2651 -18.2616
   -18.2614 -18.2569 -18.2565 -18.2558 -18.2542 -18.2523 -18.2473 -18.2417
   -18.2402 -18.2310 -18.2282 -18.2263 -18.2242 -18.2164 -18.2163 -18.2138
   -18.2039 -18.2033 -18.1992 -18.1812 -18.1703 -18.1652 -18.1619 -18.1452
    -9.4026  -9.3623  -9.3176  -9.2610  -9.2173  -9.1345  -9.1004  -9.0607
    -9.0399  -9.0163  -8.9639  -8.9037  -8.8937  -8.8767  -8.8131  -8.7775
    -8.7590  -8.7269  -8.7049  -8.6614  -8.6091  -8.5702  -8.4828  -8.3698
    -5.3302  -5.3236  -5.3174  -5.1387  -5.1364  -5.1336  -5.1319  -5.1307
    -5.1276  -5.1238  -5.1210  -5.1107  -5.1078  -5.1041  -5.0943  -5.0375
    -5.0271  -5.0210  -5.0092  -5.0049  -5.0013  -4.9912  -4.9846  -4.9767
    -4.2177  -4.0292  -3.9414  -3.7475  -3.6518  -3.4964  -3.3491  -3.1770
    -0.7038  -0.5541  -0.5414  -0.3793  -0.3268  -0.3097  -0.2368  -0.1768
    -0.0955   0.0245   0.0526   0.1475   0.3337   0.3890   0.4395   0.4592
     0.5093   0.5495   0.5607   0.6036   0.6300   0.6391   0.6916   0.7544
     0.8063   0.8413   0.9053   0.9525   0.9812   1.0186   1.0645   1.1041
     1.1415   1.1722   1.2160   1.2221   1.2503   1.2764   1.3125   1.3519
     1.3685   1.4161   1.4588   1.4843   1.5187   1.5442   1.5701   1.5878
     1.6228   1.6390   1.6584   1.6789   1.7075   1.7426   1.7632   1.8128
     1.8364   1.8673   1.8849   1.9093   1.9249   1.9507   1.9684   2.0752
     2.0927   2.1266   2.1582   2.2447   2.3583   2.3689   2.5218   2.6454

          k = 0.3750-0.1250 0.3750 (132616 PWs)   bands (ev):

   -18.5721 -18.3602 -18.3600 -18.3530 -18.3483 -18.3481 -18.3475 -18.3446
   -18.3363 -18.3290 -18.3274 -18.3255 -18.3199 -18.3181 -18.3137 -18.2868
   -18.2804 -18.2783 -18.2724 -18.2688 -18.2682 -18.2665 -18.2651 -18.2617
   -18.2614 -18.2569 -18.2565 -18.2558 -18.2542 -18.2523 -18.2473 -18.2417
   -18.2402 -18.2310 -18.2282 -18.2263 -18.2242 -18.2164 -18.2163 -18.2138
   -18.2039 -18.2033 -18.1992 -18.1812 -18.1703 -18.1652 -18.1619 -18.1452
    -9.4031  -9.3621  -9.3162  -9.2610  -9.2194  -9.1343  -9.0993  -9.0610
    -9.0416  -9.0178  -8.9575  -8.9069  -8.8943  -8.8728  -8.8158  -8.7825
    -8.7581  -8.7210  -8.7081  -8.6607  -8.6089  -8.5701  -8.4830  -8.3698
    -5.3302  -5.3236  -5.3174  -5.1388  -5.1359  -5.1346  -5.1320  -5.1306
    -5.1269  -5.1235  -5.1213  -5.1109  -5.1075  -5.1041  -5.0943  -5.0375
    -5.0271  -5.0209  -5.0092  -5.0047  -5.0014  -4.9913  -4.9846  -4.9767
    -4.2177  -4.0282  -3.9398  -3.7538  -3.6502  -3.4957  -3.3471  -3.1773
    -0.7014  -0.5562  -0.5265  -0.4123  -0.3371  -0.3031  -0.2483  -0.1850
    -0.0754   0.0493   0.0721   0.1532   0.3339   0.3825   0.4441   0.4639
     0.5040   0.5332   0.5579   0.6016   0.6181   0.6474   0.6987   0.7379
     0.8094   0.8763   0.9075   0.9526   0.9703   1.0233   1.0328   1.0954
     1.1278   1.1583   1.2035   1.2237   1.2549   1.2801   1.3234   1.3577
     1.3770   1.4188   1.4702   1.4817   1.5107   1.5501   1.5744   1.5928
     1.6128   1.6472   1.6596   1.6769   1.7025   1.7268   1.7598   1.8096
     1.8472   1.8598   1.8870   1.9175   1.9338   1.9644   1.9858   2.0728
     2.0873   2.1460   2.1757   2.2067   2.3331   2.3596   2.5213   2.6737

          k =-0.3750 0.1250 0.3750 (132616 PWs)   bands (ev):

   -18.5721 -18.3602 -18.3600 -18.3530 -18.3483 -18.3481 -18.3475 -18.3446
   -18.3363 -18.3290 -18.3274 -18.3255 -18.3199 -18.3181 -18.3137 -18.2868
   -18.2804 -18.2783 -18.2724 -18.2688 -18.2682 -18.2665 -18.2651 -18.2616
   -18.2614 -18.2569 -18.2565 -18.2558 -18.2542 -18.2523 -18.2473 -18.2417
   -18.2402 -18.2310 -18.2282 -18.2263 -18.2242 -18.2164 -18.2163 -18.2138
   -18.2039 -18.2033 -18.1992 -18.1812 -18.1703 -18.1652 -18.1619 -18.1452
    -9.4081  -9.3421  -9.3306  -9.2668  -9.2126  -9.1381  -9.0974  -9.0607
    -9.0403  -9.0191  -8.9558  -8.9065  -8.8965  -8.8761  -8.8139  -8.7789
    -8.7532  -8.7299  -8.7060  -8.6616  -8.6085  -8.5699  -8.4830  -8.3697
    -5.3302  -5.3237  -5.3174  -5.1388  -5.1355  -5.1340  -5.1323  -5.1309
    -5.1277  -5.1237  -5.1212  -5.1106  -5.1071  -5.1043  -5.0945  -5.0373
    -5.0273  -5.0207  -5.0088  -5.0054  -5.0017  -4.9909  -4.9848  -4.9765
    -4.2204  -4.0021  -3.9691  -3.7470  -3.6600  -3.4490  -3.3929  -3.1697
    -0.6976  -0.5599  -0.5353  -0.4211  -0.3430  -0.2726  -0.2197  -0.1437
    -0.0545  -0.0277   0.0510   0.1135   0.2891   0.3915   0.4440   0.4906
     0.5064   0.5557   0.5740   0.5987   0.6337   0.6392   0.7092   0.7437
     0.8018   0.8677   0.9168   0.9317   0.9777   1.0459   1.0525   1.0991
     1.1146   1.1466   1.1946   1.2349   1.2647   1.2783   1.3124   1.3541
     1.3801   1.4225   1.4543   1.5049   1.5199   1.5350   1.5737   1.5944
     1.6224   1.6378   1.6679   1.6772   1.7084   1.7271   1.7669   1.7776
     1.8347   1.8557   1.8779   1.9111   1.9502   1.9645   2.0025   2.0485
     2.0897   2.1318   2.1617   2.2731   2.2934   2.4054   2.5073   2.6462

          k = 0.3750-0.3750 0.1250 (132616 PWs)   bands (ev):

   -18.5721 -18.3602 -18.3600 -18.3530 -18.3483 -18.3481 -18.3475 -18.3446
   -18.3363 -18.3290 -18.3274 -18.3255 -18.3199 -18.3180 -18.3137 -18.2868
   -18.2805 -18.2783 -18.2724 -18.2688 -18.2682 -18.2665 -18.2651 -18.2617
   -18.2614 -18.2569 -18.2565 -18.2558 -18.2542 -18.2523 -18.2473 -18.2417
   -18.2402 -18.2310 -18.2282 -18.2263 -18.2242 -18.2164 -18.2163 -18.2138
   -18.2039 -18.2033 -18.1992 -18.1812 -18.1703 -18.1652 -18.1619 -18.1452
    -9.4139  -9.3520  -9.3045  -9.2695  -9.2247  -9.1439  -9.0997  -9.0582
    -9.0327  -9.0061  -8.9301  -8.9151  -8.8907  -8.8849  -8.8379  -8.7963
    -8.7694  -8.7255  -8.6887  -8.6475  -8.6060  -8.5743  -8.4841  -8.3697
    -5.3302  -5.3236  -5.3173  -5.1384  -5.1365  -5.1352  -5.1320  -5.1306
    -5.1276  -5.1233  -5.1200  -5.1111  -5.1068  -5.1045  -5.0946  -5.0375
    -5.0268  -5.0201  -5.0091  -5.0048  -5.0018  -4.9912  -4.9853  -4.9765
    -4.2299  -4.0228  -3.9050  -3.7352  -3.6916  -3.5115  -3.3507  -3.1630
    -0.6499  -0.6235  -0.5894  -0.4420  -0.3589  -0.2639  -0.1841  -0.1612
    -0.1127   0.0208   0.0792   0.1958   0.2942   0.4240   0.4420   0.4730
     0.4880   0.5239   0.5625   0.5998   0.6386   0.7007   0.7199   0.7364
     0.8183   0.8715   0.8915   0.9257   0.9804   1.0167   1.0695   1.0994
     1.1222   1.1648   1.2127   1.2347   1.2547   1.3111   1.3534   1.3730
     1.4142   1.4356   1.4463   1.4884   1.5154   1.5654   1.5712   1.6086
     1.6245   1.6437   1.6515   1.6662   1.7142   1.7232   1.7577   1.7769
     1.8037   1.8416   1.8618   1.8826   1.9234   1.9724   1.9888   2.0194
     2.0703   2.1202   2.1713   2.2505   2.2894   2.3787   2.4694   2.6270

          k =-0.3750-0.3750-0.1250 (132616 PWs)   bands (ev):

   -18.5721 -18.3602 -18.3600 -18.3530 -18.3483 -18.3481 -18.3475 -18.3446
   -18.3363 -18.3290 -18.3274 -18.3255 -18.3199 -18.3180 -18.3137 -18.2868
   -18.2805 -18.2783 -18.2724 -18.2688 -18.2682 -18.2665 -18.2651 -18.2616
   -18.2614 -18.2569 -18.2565 -18.2558 -18.2542 -18.2523 -18.2473 -18.2417
   -18.2402 -18.2310 -18.2282 -18.2263 -18.2242 -18.2164 -18.2163 -18.2138
   -18.2039 -18.2033 -18.1992 -18.1812 -18.1703 -18.1652 -18.1619 -18.1452
    -9.4140  -9.3503  -9.3069  -9.2711  -9.2227  -9.1420  -9.0994  -9.0584
    -9.0339  -9.0047  -8.9351  -8.9123  -8.8940  -8.8871  -8.8312  -8.7951
    -8.7685  -8.7286  -8.6872  -8.6484  -8.6063  -8.5743  -8.4840  -8.3697
    -5.3302  -5.3235  -5.3173  -5.1384  -5.1368  -5.1342  -5.1322  -5.1308
    -5.1277  -5.1237  -5.1197  -5.1109  -5.1071  -5.1046  -5.0946  -5.0375
    -5.0267  -5.0202  -5.0090  -5.0049  -5.0017  -4.9911  -4.9853  -4.9765
    -4.2319  -4.0078  -3.9232  -3.7445  -3.6751  -3.5052  -3.3610  -3.1611
    -0.6438  -0.6227  -0.5954  -0.4450  -0.3576  -0.2416  -0.2061  -0.1494
    -0.0798  -0.0151   0.0700   0.1702   0.2867   0.4243   0.4377   0.4676
     0.5156   0.5451   0.5816   0.5846   0.6380   0.6779   0.7108   0.7718
     0.8060   0.8322   0.8988   0.9448   0.9850   1.0157   1.0644   1.0988
     1.1628   1.1724   1.2159   1.2328   1.2615   1.3153   1.3324   1.3693
     1.3869   1.4475   1.4631   1.4848   1.5055   1.5465   1.5847   1.6057
     1.6305   1.6478   1.6596   1.6976   1.7042   1.7251   1.7543   1.7736
     1.7982   1.8307   1.8443   1.8924   1.9137   1.9372   1.9653   2.0261
     2.1056   2.1343   2.1697   2.2554   2.3045   2.3609   2.5090   2.5798

          k = 0.3750 0.3750-0.1250 (132616 PWs)   bands (ev):

   -18.5721 -18.3602 -18.3600 -18.3530 -18.3483 -18.3481 -18.3475 -18.3446
   -18.3363 -18.3290 -18.3274 -18.3255 -18.3199 -18.3180 -18.3137 -18.2868
   -18.2805 -18.2783 -18.2724 -18.2688 -18.2682 -18.2665 -18.2651 -18.2616
   -18.2614 -18.2569 -18.2565 -18.2558 -18.2542 -18.2523 -18.2473 -18.2417
   -18.2402 -18.2310 -18.2282 -18.2263 -18.2242 -18.2164 -18.2163 -18.2138
   -18.2039 -18.2033 -18.1992 -18.1812 -18.1703 -18.1652 -18.1619 -18.1452
    -9.4170  -9.3434  -9.3047  -9.2758  -9.2247  -9.1456  -9.1006  -9.0538
    -9.0311  -9.0060  -8.9364  -8.9143  -8.8940  -8.8795  -8.8341  -8.8006
    -8.7668  -8.7272  -8.6875  -8.6484  -8.6059  -8.5746  -8.4840  -8.3696
    -5.3302  -5.3236  -5.3173  -5.1385  -5.1370  -5.1343  -5.1326  -5.1306
    -5.1272  -5.1236  -5.1199  -5.1107  -5.1066  -5.1048  -5.0948  -5.0375
    -5.0269  -5.0198  -5.0083  -5.0058  -5.0021  -4.9908  -4.9855  -4.9764
    -4.2334  -4.0078  -3.9170  -3.7411  -3.6857  -3.5042  -3.3641  -3.1561
    -0.6726  -0.6086  -0.5800  -0.4527  -0.3651  -0.2371  -0.2036  -0.1437
    -0.0819  -0.0079   0.0728   0.1904   0.2842   0.4193   0.4317   0.4625
     0.5071   0.5301   0.5807   0.5938   0.6339   0.6857   0.7106   0.7790
     0.8243   0.8484   0.9006   0.9209   0.9731   1.0160   1.0509   1.0926
     1.1505   1.1622   1.1943   1.2193   1.2727   1.3165   1.3632   1.3905
     1.4173   1.4318   1.4557   1.5009   1.5233   1.5663   1.5722   1.5931
     1.6147   1.6306   1.6610   1.6879   1.7124   1.7199   1.7435   1.7672
     1.7977   1.8356   1.8485   1.8990   1.9279   1.9493   1.9818   2.0271
     2.0962   2.1271   2.1747   2.2384   2.2859   2.3738   2.4892   2.6083

          k =-0.3750 0.3750 0.1250 (132616 PWs)   bands (ev):

   -18.5721 -18.3602 -18.3600 -18.3530 -18.3483 -18.3481 -18.3475 -18.3446
   -18.3363 -18.3290 -18.3274 -18.3255 -18.3199 -18.3180 -18.3137 -18.2868
   -18.2805 -18.2783 -18.2724 -18.2688 -18.2682 -18.2665 -18.2651 -18.2616
   -18.2614 -18.2569 -18.2565 -18.2558 -18.2542 -18.2523 -18.2473 -18.2417
   -18.2402 -18.2310 -18.2282 -18.2263 -18.2242 -18.2164 -18.2163 -18.2138
   -18.2039 -18.2033 -18.1992 -18.1812 -18.1703 -18.1652 -18.1619 -18.1452
    -9.4162  -9.3458  -9.3049  -9.2737  -9.2240  -9.1473  -9.0985  -9.0553
    -9.0307  -9.0081  -8.9262  -8.9174  -8.8953  -8.8859  -8.8342  -8.7953
    -8.7691  -8.7277  -8.6877  -8.6487  -8.6057  -8.5740  -8.4841  -8.3696
    -5.3302  -5.3236  -5.3173  -5.1385  -5.1363  -5.1340  -5.1323  -5.1307
    -5.1283  -5.1236  -5.1201  -5.1108  -5.1063  -5.1049  -5.0947  -5.0373
    -5.0269  -5.0199  -5.0083  -5.0059  -5.0021  -4.9908  -4.9855  -4.9764
    -4.2302  -4.0256  -3.9015  -3.7289  -3.6981  -3.5085  -3.3544  -3.1630
    -0.6693  -0.6072  -0.5800  -0.4557  -0.3235  -0.2625  -0.1863  -0.1588
    -0.1226   0.0333   0.0630   0.1550   0.2673   0.4164   0.4556   0.4787
     0.5026   0.5196   0.5771   0.6013   0.6366   0.6988   0.7208   0.7426
     0.8113   0.8827   0.9060   0.9474   0.9645   1.0130   1.0507   1.1164
     1.1400   1.1619   1.1939   1.2278   1.2694   1.3169   1.3521   1.3870
     1.3956   1.4275   1.4677   1.5049   1.5344   1.5509   1.5687   1.6030
     1.6153   1.6343   1.6534   1.6686   1.6998   1.7221   1.7529   1.7783
     1.7947   1.8377   1.8514   1.8826   1.9161   1.9762   1.9877   2.0354
     2.0744   2.1217   2.1790   2.2618   2.2958   2.3698   2.4690   2.6021

          k =-0.3750-0.3750 0.3750 (132612 PWs)   bands (ev):

   -18.5721 -18.3602 -18.3600 -18.3530 -18.3483 -18.3481 -18.3475 -18.3446
   -18.3363 -18.3290 -18.3274 -18.3255 -18.3199 -18.3180 -18.3137 -18.2868
   -18.2805 -18.2783 -18.2724 -18.2688 -18.2682 -18.2665 -18.2651 -18.2616
   -18.2614 -18.2569 -18.2565 -18.2558 -18.2542 -18.2523 -18.2473 -18.2417
   -18.2402 -18.2310 -18.2282 -18.2263 -18.2242 -18.2164 -18.2163 -18.2138
   -18.2039 -18.2033 -18.1992 -18.1812 -18.1703 -18.1652 -18.1619 -18.1452
    -9.3984  -9.3357  -9.3227  -9.2749  -9.2288  -9.1631  -9.1017  -9.0559
    -9.0385  -9.0080  -8.9446  -8.9096  -8.8868  -8.8687  -8.8354  -8.7827
    -8.7525  -8.7279  -8.6980  -8.6501  -8.6083  -8.5773  -8.4849  -8.3706
    -5.3302  -5.3236  -5.3174  -5.1384  -5.1371  -5.1342  -5.1332  -5.1307
    -5.1276  -5.1226  -5.1209  -5.1105  -5.1069  -5.1041  -5.0947  -5.0375
    -5.0272  -5.0205  -5.0085  -5.0054  -5.0014  -4.9908  -4.9849  -4.9765
    -4.1170  -3.9256  -3.8663  -3.7978  -3.6780  -3.6026  -3.5021  -3.3147
    -0.4729  -0.4201  -0.3436  -0.3077  -0.2377  -0.2030  -0.1465  -0.0600
    -0.0334   0.0403   0.0933   0.2009   0.2949   0.3396   0.4012   0.4294
     0.4446   0.4983   0.5268   0.5407   0.5870   0.6338   0.6489   0.7052
     0.8373   0.8639   0.9036   0.9445   0.9513   0.9688   1.0024   1.0386
     1.0675   1.1262   1.1600   1.1724   1.1944   1.2505   1.2699   1.3097
     1.3466   1.4111   1.4383   1.4457   1.5295   1.5480   1.5680   1.6220
     1.6409   1.6735   1.6978   1.7093   1.7270   1.7528   1.7737   1.7876
     1.8167   1.8566   1.8821   1.9055   1.9352   1.9565   1.9970   2.0061
     2.0518   2.0683   2.1249   2.1382   2.1755   2.2155   2.3291   2.4466

          k =-0.3750 0.3750-0.3750 (132612 PWs)   bands (ev):

   -18.5721 -18.3602 -18.3600 -18.3530 -18.3483 -18.3481 -18.3475 -18.3446
   -18.3363 -18.3290 -18.3274 -18.3255 -18.3199 -18.3181 -18.3137 -18.2868
   -18.2805 -18.2783 -18.2724 -18.2688 -18.2682 -18.2665 -18.2651 -18.2616
   -18.2614 -18.2569 -18.2565 -18.2558 -18.2542 -18.2523 -18.2473 -18.2417
   -18.2402 -18.2310 -18.2282 -18.2263 -18.2242 -18.2164 -18.2163 -18.2138
   -18.2039 -18.2033 -18.1992 -18.1812 -18.1703 -18.1652 -18.1619 -18.1452
    -9.3916  -9.3561  -9.3123  -9.2677  -9.2353  -9.1577  -9.0993  -9.0587
    -9.0440  -9.0087  -8.9334  -8.9168  -8.8862  -8.8707  -8.8351  -8.7813
    -8.7561  -8.7230  -8.7006  -8.6495  -8.6084  -8.5769  -8.4850  -8.3707
    -5.3303  -5.3236  -5.3173  -5.1384  -5.1362  -5.1355  -5.1324  -5.1312
    -5.1276  -5.1221  -5.1213  -5.1108  -5.1070  -5.1038  -5.0945  -5.0376
    -5.0271  -5.0208  -5.0091  -5.0047  -5.0012  -4.9912  -4.9847  -4.9766
    -4.1113  -3.9388  -3.8730  -3.7764  -3.6888  -3.6124  -3.4759  -3.3277
    -0.4324  -0.4027  -0.3775  -0.3110  -0.2554  -0.2130  -0.1614  -0.1284
    -0.0067   0.0613   0.1224   0.2324   0.3251   0.3601   0.3959   0.4147
     0.4546   0.4718   0.5135   0.5473   0.5802   0.6045   0.6501   0.7185
     0.8305   0.8661   0.9031   0.9273   0.9467   0.9736   1.0012   1.0624
     1.0893   1.1095   1.1509   1.1865   1.1967   1.2354   1.2573   1.3028
     1.3578   1.4003   1.4409   1.4590   1.5309   1.5423   1.5698   1.6132
     1.6490   1.6562   1.6731   1.7217   1.7415   1.7525   1.7633   1.7975
     1.8250   1.8619   1.8968   1.9070   1.9418   1.9622   1.9945   2.0072
     2.0469   2.0661   2.1063   2.1433   2.1825   2.2089   2.3219   2.4567

          k = 0.3750-0.3750-0.3750 (132612 PWs)   bands (ev):

   -18.5721 -18.3602 -18.3600 -18.3530 -18.3483 -18.3481 -18.3475 -18.3446
   -18.3363 -18.3290 -18.3274 -18.3255 -18.3199 -18.3180 -18.3137 -18.2868
   -18.2805 -18.2783 -18.2724 -18.2688 -18.2682 -18.2665 -18.2651 -18.2616
   -18.2614 -18.2569 -18.2565 -18.2558 -18.2542 -18.2523 -18.2473 -18.2417
   -18.2402 -18.2310 -18.2282 -18.2263 -18.2242 -18.2164 -18.2163 -18.2138
   -18.2039 -18.2033 -18.1992 -18.1812 -18.1703 -18.1652 -18.1619 -18.1452
    -9.3975  -9.3380  -9.3224  -9.2742  -9.2288  -9.1630  -9.0984  -9.0567
    -9.0414  -9.0105  -8.9324  -8.9143  -8.8911  -8.8740  -8.8311  -8.7795
    -8.7537  -8.7294  -8.6976  -8.6509  -8.6080  -8.5767  -8.4850  -8.3706
    -5.3302  -5.3236  -5.3174  -5.1386  -5.1360  -5.1344  -5.1326  -5.1314
    -5.1282  -5.1224  -5.1214  -5.1105  -5.1067  -5.1041  -5.0947  -5.0374
    -5.0272  -5.0205  -5.0086  -5.0054  -5.0015  -4.9908  -4.9849  -4.9764
    -4.1130  -3.9398  -3.8677  -3.7812  -3.6890  -3.6002  -3.4874  -3.3265
    -0.4797  -0.3877  -0.3480  -0.2921  -0.2483  -0.1931  -0.1198  -0.1041
    -0.0450   0.0243   0.0881   0.1670   0.2410   0.3705   0.4213   0.4556
     0.4861   0.4990   0.5311   0.5418   0.5841   0.6205   0.6500   0.7194
     0.7970   0.8841   0.9159   0.9301   0.9547   0.9768   1.0081   1.0541
     1.0755   1.0981   1.1460   1.1753   1.2037   1.2342   1.2814   1.3116
     1.3471   1.4046   1.4416   1.4746   1.5243   1.5487   1.5746   1.5958
     1.6167   1.6688   1.6804   1.7200   1.7283   1.7518   1.7825   1.7887
     1.8271   1.8592   1.8873   1.9119   1.9265   1.9791   1.9872   1.9929
     2.0509   2.0734   2.1130   2.1386   2.1885   2.2340   2.3187   2.4287

     highest occupied level (ev):     3.0823

!    total energy              =   -2256.28600363 Ry
     estimated scf accuracy    <          6.2E-11 Ry

     The total energy is the sum of the following terms:
     one-electron contribution =    -988.66795059 Ry
     hartree contribution      =     622.35152316 Ry
     xc contribution           =    -647.48151872 Ry
     ewald contribution        =   -1242.48805748 Ry

     convergence has been achieved in  15 iterations

     Forces acting on atoms (cartesian axes, Ry/au):

     atom    1 type  1   force =     0.00106680   -0.00262494    0.00332228
     atom    2 type  2   force =    -0.00713286   -0.01096942    0.00635200
     atom    3 type  3   force =    -0.00192863   -0.00511536    0.01314818
     atom    4 type  3   force =     0.00318717    0.00558939   -0.00810608
     atom    5 type  3   force =    -0.00300256    0.00494291    0.00253446
     atom    6 type  1   force =     0.00660518    0.00622487   -0.01255252
     atom    7 type  2   force =     0.02036026    0.00190715   -0.01848098
     atom    8 type  3   force =     0.00520283   -0.00808507   -0.00420172
     atom    9 type  3   force =    -0.00762409    0.00332996    0.00868733
     atom   10 type  3   force =    -0.00501554   -0.00199909    0.00719103
     atom   11 type  1   force =    -0.00381213   -0.00206670    0.00174817
     atom   12 type  2   force =    -0.00307006    0.00289976    0.01875687
     atom   13 type  3   force =     0.00229702    0.00160371   -0.00606044
     atom   14 type  3   force =    -0.01913610    0.00787425    0.00180827
     atom   15 type  3   force =     0.00627277   -0.00985648   -0.00448210
     atom   16 type  1   force =     0.00194717   -0.00764974   -0.00333205
     atom   17 type  2   force =    -0.00132378    0.00172090   -0.01420935
     atom   18 type  3   force =     0.02062631    0.00057470    0.00558406
     atom   19 type  3   force =    -0.00088696    0.00252054   -0.01465883
     atom   20 type  3   force =     0.00089982   -0.00208008    0.00843323
     atom   21 type  1   force =     0.00331624   -0.00488896   -0.00310168
     atom   22 type  2   force =    -0.00775447   -0.00433399   -0.00788449
     atom   23 type  3   force =    -0.00148706    0.00043695   -0.00121541
     atom   24 type  3   force =     0.00112278   -0.00146661    0.00742298
     atom   25 type  3   force =    -0.00401653    0.02448184   -0.00541576
     atom   26 type  1   force =    -0.00072433    0.00045597   -0.00149118
     atom   27 type  2   force =    -0.01708577   -0.00986810    0.00912059
     atom   28 type  3   force =    -0.01126424   -0.00255660    0.00151089
     atom   29 type  3   force =     0.01294766    0.00593750   -0.00472479
     atom   30 type  3   force =     0.00051629   -0.01822542   -0.00784295
     atom   31 type  1   force =    -0.00038191    0.00024144    0.00156946
     atom   32 type  2   force =     0.01297183   -0.00146294    0.00243992
     atom   33 type  3   force =     0.00650245    0.00517141    0.00352611
     atom   34 type  3   force =    -0.00913519    0.00256023   -0.00432494
     atom   35 type  3   force =    -0.00026872   -0.02357984    0.00362527
     atom   36 type  1   force =    -0.00009552   -0.00083609    0.00187568
     atom   37 type  2   force =     0.00426931    0.01329407   -0.00688061
     atom   38 type  3   force =    -0.00463271    0.00808798    0.00632114
     atom   39 type  3   force =    -0.00332728    0.01056770    0.01057518
     atom   40 type  3   force =     0.00299454    0.00724224    0.00341278

     Total force =     0.087850     Total SCF correction =     0.000035


     Computing stress (Cartesian axis) and pressure

          total   stress  (Ry/bohr**3)                   (kbar)     P=       -7.80
  -0.00004945  -0.00000288   0.00000109           -7.27       -0.42        0.16
  -0.00000288  -0.00005113   0.00000029           -0.42       -7.52        0.04
   0.00000109   0.00000029  -0.00005853            0.16        0.04       -8.61

 
     init_run     :     20.12s CPU     17.06s WALL (       1 calls)
     electrons    :    200.91s CPU    213.83s WALL (       1 calls)
     forces       :      8.79s CPU      3.96s WALL (       1 calls)
     stress       :     31.73s CPU     31.32s WALL (       1 calls)

     Called by init_run:
     wfcinit      :     12.20s CPU     13.98s WALL (       1 calls)
                                       13.98s GPU  (       1 calls)
     potinit      :      4.68s CPU      1.44s WALL (       1 calls)
     hinit0       :      2.68s CPU      0.96s WALL (       1 calls)

     Called by electrons:
     c_bands      :    120.12s CPU    171.41s WALL (      16 calls)
     sum_band     :     21.83s CPU     21.04s WALL (      16 calls)
                                       21.04s GPU  (      16 calls)
     v_of_rho     :     54.78s CPU     16.63s WALL (      16 calls)
     mix_rho      :      6.45s CPU      5.07s WALL (      16 calls)

     Called by c_bands:
     init_us_2    :      2.48s CPU      3.23s WALL (     280 calls)
                                        3.22s GPU  (     280 calls)
     cegterg      :     80.01s CPU    128.57s WALL (     128 calls)

     Called by *egterg:
     cdiaghg      :     13.62s CPU     25.83s WALL (     641 calls)
                                       25.80s GPU  (     641 calls)
     h_psi        :     54.36s CPU     74.19s WALL (     657 calls)
                                       73.74s GPU  (     657 calls)
     g_psi        :      0.00s CPU      0.36s WALL (     521 calls)
                                        0.36s GPU  (     521 calls)

     Called by h_psi:
     h_psi:calbec :      0.29s CPU      9.99s WALL (     657 calls)
                                        9.98s GPU  (     657 calls)
     vloc_psi     :     39.98s CPU     54.17s WALL (     657 calls)
                                       53.25s GPU  (     657 calls)
     add_vuspsi   :      0.33s CPU      9.95s WALL (     657 calls)
                                        9.94s GPU  (     657 calls)

     General routines
     calbec       :      0.29s CPU      0.40s WALL (     697 calls)
     fft          :     25.55s CPU      6.53s WALL (     185 calls)
                                        0.01s GPU  (       6 calls)
     ffts         :      2.63s CPU      0.68s WALL (      16 calls)
     fftw         :      0.66s CPU     62.74s WALL (   10464 calls)
                                       46.93s GPU  (   10464 calls)
 
     Parallel routines
 
     PWSCF        :   4m22.50s CPU   4m27.25s WALL

 
   This run was terminated on:  19:15:41  22Apr2021            

=------------------------------------------------------------------------------=
   JOB DONE.
=------------------------------------------------------------------------------=
