
     Program PWSCF v.6.7MaX starts on 23Apr2021 at  0:28:42 

     This program is part of the open-source Quantum ESPRESSO suite
     for quantum simulation of materials; please cite
         "P. Giannozzi et al., J. Phys.:Condens. Matter 21 395502 (2009);
         "P. Giannozzi et al., J. Phys.:Condens. Matter 29 465901 (2017);
         "P. Giannozzi et al., J. Chem. Phys. 152 154105 (2020);
          URL http://www.quantum-espresso.org", 
     in publications or presentations arising from this work. More details at
     http://www.quantum-espresso.org/quote

     Parallel version (MPI & OpenMP), running on      16 processor cores
     Number of MPI processes:                 4
     Threads/MPI process:                     4

     MPI processes distributed on     1 nodes
     K-points division:     npool     =       4
     Reading input from ESP_79.pwi
Warning: card &CELL ignored
Warning: card / ignored

     Current dimensions of program PWSCF are:
     Max number of different atomic species (ntypx) = 10
     Max number of k-points (npk) =  40000
     Max angular momentum in pseudopotentials (lmaxx) =  3
     Message from routine read_pp_mesh:
     mesh size missing, using the one in header
     Message from routine read_pp_mesh:
     mesh size missing, using the one in header
     Message from routine read_pp_mesh:
     mesh size missing, using the one in header

     Subspace diagonalization in iterative solution of the eigenvalue problem:
     a serial algorithm will be used

 
     G-vector sticks info
     --------------------
     sticks:   dense  smooth     PW     G-vecs:    dense   smooth      PW
     Sum       12589   12589   3289              1061107  1061107  140905
 
     Using Slab Decomposition
 


     bravais-lattice index     =            0
     lattice parameter (alat)  =      23.7585  a.u.
     unit-cell volume          =   13410.8736 (a.u.)^3
     number of atoms/cell      =           40
     number of atomic types    =            3
     number of electrons       =       352.00
     number of Kohn-Sham states=          176
     kinetic-energy cutoff     =      70.0000  Ry
     charge density cutoff     =     280.0000  Ry
     scf convergence threshold =      1.0E-10
     mixing beta               =       0.7000
     number of iterations used =            8  plain     mixing
     Exchange-correlation= PBESOL
                           (   1   4  10   8   0   0   0)

     GPU acceleration is ACTIVE.


     celldm(1)=  23.758500  celldm(2)=   0.000000  celldm(3)=   0.000000
     celldm(4)=   0.000000  celldm(5)=   0.000000  celldm(6)=   0.000000

     crystal axes: (cart. coord. in units of alat)
               a(1) = (   1.000000   0.000000   0.000000 )  
               a(2) = (   0.000000   1.000000   0.000000 )  
               a(3) = (   0.000000   0.000000   1.000000 )  

     reciprocal axes: (cart. coord. in units 2 pi/alat)
               b(1) = (  1.000000  0.000000  0.000000 )  
               b(2) = (  0.000000  1.000000  0.000000 )  
               b(3) = (  0.000000  0.000000  1.000000 )  


     PseudoPot. # 1 for Cs read from file:
     /m100/home/userexternal/lmonacel/espresso/pseudo/Cs-nc-pbesol.upf
     MD5 check sum: 9d2f2206a14dc5b3b3f3fbfae186bed4
     Pseudo is Norm-conserving + core correction, Zval =  9.0
     Generated using ONCVPSP code by D. R. Hamann
     Using radial grid of 2384 points,  8 beta functions with: 
                l(1) =   0
                l(2) =   0
                l(3) =   1
                l(4) =   1
                l(5) =   2
                l(6) =   2
                l(7) =   3
                l(8) =   3

     PseudoPot. # 2 for Sn read from file:
     /m100/home/userexternal/lmonacel/espresso/pseudo/Sn-nc-pbesol.upf
     MD5 check sum: c2995d571af40102bfea7461443d92cf
     Pseudo is Norm-conserving + core correction, Zval = 14.0
     Generated using ONCVPSP code by D. R. Hamann
     Using radial grid of 1628 points,  6 beta functions with: 
                l(1) =   0
                l(2) =   0
                l(3) =   1
                l(4) =   1
                l(5) =   2
                l(6) =   2

     PseudoPot. # 3 for I  read from file:
     /m100/home/userexternal/lmonacel/espresso/pseudo/I-nc-pbesol.upf
     MD5 check sum: 80ed5ceb2eb9c553cfb6760a299d9c5b
     Pseudo is Norm-conserving + core correction, Zval =  7.0
     Generated using ONCVPSP code by D. R. Hamann
     Using radial grid of 1182 points,  6 beta functions with: 
                l(1) =   0
                l(2) =   0
                l(3) =   1
                l(4) =   1
                l(5) =   2
                l(6) =   2

     atomic species   valence    mass     pseudopotential
        Cs             9.00   132.90545     Cs( 1.00)
        Sn            14.00   118.71000     Sn( 1.00)
        I              7.00   126.90447     I ( 1.00)

     No symmetry found



   Cartesian axes

     site n.     atom                  positions (alat units)
         1           Cs  tau(   1) = (   0.2476439   0.2520793   0.2057642  )
         2           Sn  tau(   2) = (  -0.0187495   0.0057246   0.0137323  )
         3           I   tau(   3) = (   0.2331294  -0.0001460  -0.0110282  )
         4           I   tau(   4) = (   0.0021773   0.0078304   0.2343675  )
         5           I   tau(   5) = (  -0.0187880   0.2680464   0.0184057  )
         6           Cs  tau(   6) = (   0.2595395   0.2450321   0.7575284  )
         7           Sn  tau(   7) = (   0.0050309   0.0105545   0.5153962  )
         8           I   tau(   8) = (   0.2648388   0.0082513   0.5441442  )
         9           I   tau(   9) = (  -0.0252532   0.0402039   0.7390432  )
        10           I   tau(  10) = (   0.0035237   0.2438968   0.4760505  )
        11           Cs  tau(  11) = (   0.2735111   0.7598209   0.2414459  )
        12           Sn  tau(  12) = (   0.0039632   0.5060415   0.0124297  )
        13           I   tau(  13) = (   0.2462755   0.4957296  -0.0117070  )
        14           I   tau(  14) = (  -0.0146939   0.5208434   0.2494886  )
        15           I   tau(  15) = (  -0.0173768   0.7606979  -0.0067561  )
        16           Cs  tau(  16) = (   0.2128162   0.7816095   0.7705661  )
        17           Sn  tau(  17) = (   0.0222124   0.4980796   0.5013393  )
        18           I   tau(  18) = (   0.2543024   0.5118088   0.4839170  )
        19           I   tau(  19) = (   0.0190931   0.4609938   0.7494409  )
        20           I   tau(  20) = (   0.0091402   0.7506614   0.5043291  )
        21           Cs  tau(  21) = (   0.7408317   0.2134226   0.2532937  )
        22           Sn  tau(  22) = (   0.4886293   0.0023321  -0.0092775  )
        23           I   tau(  23) = (   0.7229890   0.0013351   0.0399944  )
        24           I   tau(  24) = (   0.4778798  -0.0025157   0.2596990  )
        25           I   tau(  25) = (   0.4773277   0.2547303   0.0094122  )
        26           Cs  tau(  26) = (   0.7598577   0.2589475   0.7627081  )
        27           Sn  tau(  27) = (   0.5087781   0.0050703   0.4988513  )
        28           I   tau(  28) = (   0.7678643  -0.0060668   0.5074300  )
        29           I   tau(  29) = (   0.4915779  -0.0020623   0.7646544  )
        30           I   tau(  30) = (   0.5238105   0.2485365   0.5141581  )
        31           Cs  tau(  31) = (   0.7463629   0.7085802   0.2697291  )
        32           Sn  tau(  32) = (   0.5079024   0.4957924  -0.0052863  )
        33           I   tau(  33) = (   0.7472183   0.4938202  -0.0271272  )
        34           I   tau(  34) = (   0.5244149   0.5079760   0.2199784  )
        35           I   tau(  35) = (   0.4967914   0.7442705  -0.0001849  )
        36           Cs  tau(  36) = (   0.7539365   0.6978099   0.7461051  )
        37           Sn  tau(  37) = (   0.5275765   0.4930202   0.4963684  )
        38           I   tau(  38) = (   0.7672559   0.5042831   0.4894680  )
        39           I   tau(  39) = (   0.5169649   0.5101450   0.7355377  )
        40           I   tau(  40) = (   0.4928820   0.7477966   0.4877738  )

     number of k points=    32
                       cart. coord. in units 2pi/alat
        k(    1) = (   0.1250000   0.1250000   0.1250000), wk =   0.0625000
        k(    2) = (   0.1250000   0.1250000   0.3750000), wk =   0.0625000
        k(    3) = (   0.1250000   0.3750000   0.3750000), wk =   0.0625000
        k(    4) = (   0.3750000   0.3750000   0.3750000), wk =   0.0625000
        k(    5) = (  -0.1250000  -0.1250000   0.1250000), wk =   0.0625000
        k(    6) = (  -0.1250000   0.1250000  -0.1250000), wk =   0.0625000
        k(    7) = (   0.1250000  -0.1250000  -0.1250000), wk =   0.0625000
        k(    8) = (  -0.1250000  -0.1250000   0.3750000), wk =   0.0625000
        k(    9) = (  -0.1250000   0.1250000  -0.3750000), wk =   0.0625000
        k(   10) = (   0.1250000  -0.1250000  -0.3750000), wk =   0.0625000
        k(   11) = (   0.3750000  -0.1250000   0.1250000), wk =   0.0625000
        k(   12) = (  -0.3750000  -0.1250000  -0.1250000), wk =   0.0625000
        k(   13) = (   0.3750000   0.1250000  -0.1250000), wk =   0.0625000
        k(   14) = (  -0.3750000   0.1250000   0.1250000), wk =   0.0625000
        k(   15) = (  -0.1250000   0.3750000   0.1250000), wk =   0.0625000
        k(   16) = (  -0.1250000  -0.3750000  -0.1250000), wk =   0.0625000
        k(   17) = (   0.1250000   0.3750000  -0.1250000), wk =   0.0625000
        k(   18) = (   0.1250000  -0.3750000   0.1250000), wk =   0.0625000
        k(   19) = (  -0.1250000  -0.3750000   0.3750000), wk =   0.0625000
        k(   20) = (  -0.1250000   0.3750000  -0.3750000), wk =   0.0625000
        k(   21) = (   0.1250000  -0.3750000  -0.3750000), wk =   0.0625000
        k(   22) = (   0.3750000   0.1250000  -0.3750000), wk =   0.0625000
        k(   23) = (  -0.3750000  -0.1250000  -0.3750000), wk =   0.0625000
        k(   24) = (   0.3750000  -0.1250000   0.3750000), wk =   0.0625000
        k(   25) = (  -0.3750000   0.1250000   0.3750000), wk =   0.0625000
        k(   26) = (   0.3750000  -0.3750000   0.1250000), wk =   0.0625000
        k(   27) = (  -0.3750000  -0.3750000  -0.1250000), wk =   0.0625000
        k(   28) = (   0.3750000   0.3750000  -0.1250000), wk =   0.0625000
        k(   29) = (  -0.3750000   0.3750000   0.1250000), wk =   0.0625000
        k(   30) = (  -0.3750000  -0.3750000   0.3750000), wk =   0.0625000
        k(   31) = (  -0.3750000   0.3750000  -0.3750000), wk =   0.0625000
        k(   32) = (   0.3750000  -0.3750000  -0.3750000), wk =   0.0625000

     Dense  grid:  1061107 G-vectors     FFT dimensions: ( 128, 128, 128)

     Estimated max dynamical RAM per process >       6.82 GB

     Estimated total dynamical RAM >      27.27 GB

     Initial potential from superposition of free atoms

     starting charge  351.69472, renormalised to  352.00000
     Starting wfcs are  208 randomized atomic wfcs

     total cpu time spent up to now is       18.1 secs

     Self-consistent Calculation

     iteration #  1     ecut=    70.00 Ry     beta= 0.70
     Davidson diagonalization with overlap
     ethr =  1.00E-02,  avg # of iterations =  2.0

     Threshold (ethr) on eigenvalues was too large:
     Diagonalizing with lowered threshold

     Davidson diagonalization with overlap
     ethr =  2.01E-04,  avg # of iterations =  4.0

     total cpu time spent up to now is       39.2 secs

     total energy              =   -2256.07590775 Ry
     estimated scf accuracy    <       0.60544553 Ry

     iteration #  2     ecut=    70.00 Ry     beta= 0.70
     Davidson diagonalization with overlap
     ethr =  1.72E-04,  avg # of iterations =  3.3

     total cpu time spent up to now is       52.1 secs

     total energy              =   -2256.26540781 Ry
     estimated scf accuracy    <       0.24326728 Ry

     iteration #  3     ecut=    70.00 Ry     beta= 0.70
     Davidson diagonalization with overlap
     ethr =  6.91E-05,  avg # of iterations =  2.6

     total cpu time spent up to now is       64.0 secs

     total energy              =   -2256.31162498 Ry
     estimated scf accuracy    <       0.01565488 Ry

     iteration #  4     ecut=    70.00 Ry     beta= 0.70
     Davidson diagonalization with overlap
     ethr =  4.45E-06,  avg # of iterations =  3.7

     total cpu time spent up to now is       77.7 secs

     total energy              =   -2256.31741112 Ry
     estimated scf accuracy    <       0.00589016 Ry

     iteration #  5     ecut=    70.00 Ry     beta= 0.70
     Davidson diagonalization with overlap
     ethr =  1.67E-06,  avg # of iterations =  3.7

     total cpu time spent up to now is       90.1 secs

     total energy              =   -2256.31850847 Ry
     estimated scf accuracy    <       0.00092513 Ry

     iteration #  6     ecut=    70.00 Ry     beta= 0.70
     Davidson diagonalization with overlap
     ethr =  2.63E-07,  avg # of iterations =  4.0

     total cpu time spent up to now is      102.9 secs

     total energy              =   -2256.31869384 Ry
     estimated scf accuracy    <       0.00016311 Ry

     iteration #  7     ecut=    70.00 Ry     beta= 0.70
     Davidson diagonalization with overlap
     ethr =  4.63E-08,  avg # of iterations =  4.8

     total cpu time spent up to now is      116.6 secs

     total energy              =   -2256.31874283 Ry
     estimated scf accuracy    <       0.00001767 Ry

     iteration #  8     ecut=    70.00 Ry     beta= 0.70
     Davidson diagonalization with overlap
     ethr =  5.02E-09,  avg # of iterations =  4.7

     total cpu time spent up to now is      130.7 secs

     total energy              =   -2256.31875111 Ry
     estimated scf accuracy    <       0.00000334 Ry

     iteration #  9     ecut=    70.00 Ry     beta= 0.70
     Davidson diagonalization with overlap
     ethr =  9.50E-10,  avg # of iterations =  4.3

     total cpu time spent up to now is      144.6 secs

     total energy              =   -2256.31875218 Ry
     estimated scf accuracy    <       0.00000089 Ry

     iteration # 10     ecut=    70.00 Ry     beta= 0.70
     Davidson diagonalization with overlap
     ethr =  2.52E-10,  avg # of iterations =  3.8

     total cpu time spent up to now is      158.0 secs

     total energy              =   -2256.31875243 Ry
     estimated scf accuracy    <       0.00000012 Ry

     iteration # 11     ecut=    70.00 Ry     beta= 0.70
     Davidson diagonalization with overlap
     ethr =  3.50E-11,  avg # of iterations =  5.0

     total cpu time spent up to now is      173.2 secs

     total energy              =   -2256.31875251 Ry
     estimated scf accuracy    <       0.00000003 Ry

     iteration # 12     ecut=    70.00 Ry     beta= 0.70
     Davidson diagonalization with overlap
     ethr =  8.88E-12,  avg # of iterations =  4.3

     total cpu time spent up to now is      187.4 secs

     total energy              =   -2256.31875252 Ry
     estimated scf accuracy    <          6.1E-09 Ry

     iteration # 13     ecut=    70.00 Ry     beta= 0.70
     Davidson diagonalization with overlap
     ethr =  1.73E-12,  avg # of iterations =  6.0

     total cpu time spent up to now is      202.7 secs

     total energy              =   -2256.31875253 Ry
     estimated scf accuracy    <          6.0E-10 Ry

     iteration # 14     ecut=    70.00 Ry     beta= 0.70
     Davidson diagonalization with overlap
     ethr =  1.69E-13,  avg # of iterations =  5.9

     total cpu time spent up to now is      219.8 secs

     total energy              =   -2256.31875253 Ry
     estimated scf accuracy    <          1.6E-10 Ry

     iteration # 15     ecut=    70.00 Ry     beta= 0.70
     Davidson diagonalization with overlap
     ethr =  1.00E-13,  avg # of iterations =  2.2

     total cpu time spent up to now is      231.2 secs

     End of self-consistent calculation

          k = 0.1250 0.1250 0.1250 (132670 PWs)   bands (ev):

   -18.4432 -18.4052 -18.3812 -18.3751 -18.3695 -18.3610 -18.3445 -18.2839
   -18.2812 -18.2705 -18.2677 -18.2645 -18.2517 -18.2375 -18.2322 -18.2248
   -18.2216 -18.2173 -18.2107 -18.2095 -18.2005 -18.1999 -18.1982 -18.1853
   -18.1841 -18.1825 -18.1822 -18.1807 -18.1790 -18.1785 -18.1677 -18.1591
   -18.1527 -18.1467 -18.1387 -18.1367 -18.1304 -18.1237 -18.1220 -18.1171
   -18.1170 -18.1127 -18.1097 -18.0772 -18.0697 -18.0554 -18.0441 -18.0379
    -9.4466  -9.3449  -9.2915  -9.2599  -9.2016  -9.1464  -9.0952  -9.0329
    -9.0127  -8.9659  -8.9600  -8.9425  -8.9214  -8.9061  -8.8650  -8.8515
    -8.8020  -8.7896  -8.7685  -8.6849  -8.6503  -8.6399  -8.5888  -8.5402
    -5.2218  -5.2145  -5.2132  -5.1789  -5.1738  -5.1679  -5.1610  -5.1575
    -5.1556  -5.1548  -5.1478  -5.1443  -5.1427  -5.1384  -5.1350  -5.1329
    -5.1264  -5.1248  -5.1163  -5.1120  -5.0986  -5.0568  -5.0344  -5.0331
    -4.4405  -3.9359  -3.9110  -3.8940  -3.3912  -3.3563  -3.3355  -2.7468
    -0.7377  -0.7058  -0.6879  -0.6336  -0.5943  -0.5697  -0.5075  -0.4861
    -0.4454  -0.3978  -0.3265  -0.2427   0.4421   0.4742   0.4836   0.5963
     0.6141   0.6657   0.7205   0.7667   0.7884   0.8925   0.9095   0.9315
     0.9761   1.0043   1.0240   1.0771   1.1287   1.1524   1.1607   1.1860
     1.2097   1.2427   1.2521   1.2603   1.2834   1.2967   1.3391   1.3885
     1.4151   1.4227   1.4335   1.4602   1.4739   1.4826   1.5123   1.5450
     1.5692   1.5875   1.6051   1.6195   1.6463   1.6603   1.7093   1.7341
     1.7435   1.8010   1.8147   1.9313   2.0084   2.0265   2.0548   2.1122
     2.1241   2.1638   2.2353   2.2864   2.6527   2.7226   2.8576   3.2125

          k = 0.1250 0.1250 0.3750 (132608 PWs)   bands (ev):

   -18.4432 -18.4052 -18.3812 -18.3751 -18.3695 -18.3610 -18.3445 -18.2838
   -18.2812 -18.2705 -18.2677 -18.2645 -18.2517 -18.2375 -18.2322 -18.2248
   -18.2216 -18.2173 -18.2107 -18.2095 -18.2005 -18.1999 -18.1982 -18.1853
   -18.1841 -18.1825 -18.1822 -18.1807 -18.1790 -18.1785 -18.1677 -18.1591
   -18.1527 -18.1467 -18.1387 -18.1367 -18.1304 -18.1237 -18.1220 -18.1171
   -18.1170 -18.1127 -18.1097 -18.0772 -18.0697 -18.0554 -18.0441 -18.0379
    -9.4250  -9.3360  -9.3213  -9.2391  -9.2311  -9.1660  -9.1045  -9.0326
    -8.9988  -8.9672  -8.9600  -8.9416  -8.9172  -8.9103  -8.8461  -8.8225
    -8.8015  -8.7901  -8.7711  -8.6941  -8.6593  -8.6348  -8.5977  -8.5404
    -5.2214  -5.2142  -5.2130  -5.1778  -5.1743  -5.1669  -5.1598  -5.1583
    -5.1563  -5.1540  -5.1475  -5.1445  -5.1430  -5.1388  -5.1353  -5.1336
    -5.1266  -5.1252  -5.1164  -5.1122  -5.0988  -5.0569  -5.0344  -5.0330
    -4.3120  -4.0964  -3.7956  -3.7677  -3.5706  -3.5320  -3.2211  -2.9601
    -0.7034  -0.6541  -0.6310  -0.5741  -0.5511  -0.5149  -0.4335  -0.4021
    -0.1667  -0.1216  -0.0704   0.0795   0.3892   0.4344   0.4815   0.5164
     0.5266   0.5673   0.6179   0.6453   0.6579   0.7025   0.7339   0.7657
     0.8254   0.8630   1.0022   1.0479   1.1013   1.1363   1.1524   1.1783
     1.2050   1.2305   1.2579   1.2710   1.2868   1.3090   1.3527   1.3818
     1.3938   1.4153   1.4359   1.4758   1.4941   1.5224   1.5435   1.5540
     1.5753   1.6124   1.6313   1.6600   1.6728   1.6914   1.7159   1.7600
     1.7685   1.8073   1.8354   1.8747   1.9141   1.9616   1.9927   2.0247
     2.0335   2.1596   2.2561   2.3103   2.4440   2.4824   2.8397   2.9748

          k = 0.1250 0.3750 0.3750 (132616 PWs)   bands (ev):

   -18.4432 -18.4052 -18.3812 -18.3751 -18.3696 -18.3610 -18.3445 -18.2839
   -18.2812 -18.2705 -18.2677 -18.2645 -18.2517 -18.2375 -18.2322 -18.2248
   -18.2216 -18.2173 -18.2107 -18.2095 -18.2005 -18.1999 -18.1982 -18.1853
   -18.1841 -18.1824 -18.1822 -18.1807 -18.1790 -18.1785 -18.1677 -18.1591
   -18.1527 -18.1467 -18.1387 -18.1367 -18.1304 -18.1237 -18.1220 -18.1171
   -18.1170 -18.1127 -18.1097 -18.0772 -18.0697 -18.0554 -18.0441 -18.0379
    -9.4038  -9.3428  -9.3164  -9.2552  -9.2305  -9.1820  -9.1237  -9.0386
    -8.9976  -8.9635  -8.9523  -8.9292  -8.9134  -8.8994  -8.8453  -8.8165
    -8.8058  -8.7913  -8.7688  -8.6844  -8.6609  -8.6394  -8.5996  -8.5477
    -5.2215  -5.2139  -5.2131  -5.1772  -5.1747  -5.1666  -5.1595  -5.1580
    -5.1561  -5.1535  -5.1485  -5.1451  -5.1433  -5.1392  -5.1360  -5.1320
    -5.1271  -5.1246  -5.1164  -5.1127  -5.0988  -5.0567  -5.0345  -5.0330
    -4.1875  -3.9713  -3.9517  -3.7224  -3.6614  -3.4347  -3.4114  -3.1508
    -0.6541  -0.6108  -0.5940  -0.4921  -0.3443  -0.3063  -0.2298  -0.1524
    -0.0904  -0.0581   0.0531   0.1995   0.2839   0.3700   0.4371   0.4840
     0.5085   0.5375   0.5666   0.5787   0.6242   0.6683   0.7020   0.7268
     0.7817   0.8688   0.9004   0.9495   0.9904   1.0180   1.0892   1.0944
     1.1216   1.1526   1.1969   1.2221   1.2405   1.2660   1.3127   1.3492
     1.3707   1.4425   1.4654   1.5241   1.5336   1.5870   1.5935   1.6247
     1.6458   1.6508   1.6709   1.6786   1.7014   1.7114   1.7554   1.7811
     1.8052   1.8369   1.8544   1.8787   1.8972   1.9094   1.9502   1.9687
     1.9902   2.0265   2.0877   2.1128   2.2987   2.4531   2.5074   2.6499

          k = 0.3750 0.3750 0.3750 (132612 PWs)   bands (ev):

   -18.4432 -18.4052 -18.3812 -18.3751 -18.3695 -18.3610 -18.3445 -18.2838
   -18.2812 -18.2705 -18.2677 -18.2645 -18.2517 -18.2375 -18.2322 -18.2248
   -18.2216 -18.2173 -18.2107 -18.2095 -18.2005 -18.1999 -18.1982 -18.1853
   -18.1841 -18.1824 -18.1822 -18.1807 -18.1790 -18.1785 -18.1677 -18.1591
   -18.1527 -18.1467 -18.1387 -18.1367 -18.1304 -18.1237 -18.1220 -18.1171
   -18.1170 -18.1127 -18.1097 -18.0772 -18.0697 -18.0554 -18.0441 -18.0379
    -9.3856  -9.3389  -9.3038  -9.2650  -9.2429  -9.2080  -9.1370  -9.0647
    -8.9858  -8.9546  -8.9492  -8.9287  -8.8798  -8.8731  -8.8480  -8.8300
    -8.8166  -8.7946  -8.7599  -8.6910  -8.6585  -8.6425  -8.5904  -8.5595
    -5.2216  -5.2137  -5.2131  -5.1774  -5.1744  -5.1667  -5.1597  -5.1588
    -5.1562  -5.1533  -5.1483  -5.1453  -5.1436  -5.1397  -5.1361  -5.1314
    -5.1266  -5.1244  -5.1163  -5.1125  -5.0985  -5.0568  -5.0339  -5.0331
    -4.0666  -3.8637  -3.8353  -3.8118  -3.6340  -3.6031  -3.5568  -3.3413
    -0.4315  -0.3781  -0.3294  -0.3034  -0.2844  -0.2465  -0.1585  -0.1012
    -0.0253   0.0133   0.0363   0.2153   0.2713   0.3238   0.3561   0.4044
     0.4597   0.4791   0.5124   0.5412   0.5689   0.6088   0.6489   0.6955
     0.8554   0.8834   0.9043   0.9360   0.9636   0.9978   1.0188   1.0366
     1.0683   1.1097   1.1199   1.1306   1.1730   1.2305   1.2410   1.2771
     1.3883   1.4541   1.4965   1.5461   1.5612   1.5936   1.6192   1.6515
     1.6741   1.6917   1.7079   1.7204   1.7357   1.7516   1.7760   1.8006
     1.8212   1.8434   1.8620   1.8766   1.8943   1.9042   1.9211   1.9360
     1.9656   1.9874   2.0225   2.0421   2.1060   2.1581   2.2029   2.3209

          k =-0.1250-0.1250 0.1250 (132670 PWs)   bands (ev):

   -18.4432 -18.4052 -18.3812 -18.3751 -18.3695 -18.3610 -18.3445 -18.2839
   -18.2812 -18.2705 -18.2677 -18.2645 -18.2517 -18.2375 -18.2322 -18.2248
   -18.2216 -18.2173 -18.2107 -18.2095 -18.2005 -18.1999 -18.1982 -18.1853
   -18.1841 -18.1825 -18.1822 -18.1807 -18.1790 -18.1785 -18.1677 -18.1591
   -18.1527 -18.1467 -18.1387 -18.1367 -18.1304 -18.1237 -18.1220 -18.1171
   -18.1170 -18.1127 -18.1097 -18.0772 -18.0697 -18.0554 -18.0441 -18.0379
    -9.4464  -9.3447  -9.2975  -9.2525  -9.1994  -9.1526  -9.0963  -9.0318
    -9.0073  -8.9676  -8.9599  -8.9429  -8.9207  -8.9032  -8.8754  -8.8501
    -8.7987  -8.7884  -8.7691  -8.6847  -8.6497  -8.6405  -8.5890  -8.5402
    -5.2220  -5.2145  -5.2131  -5.1788  -5.1739  -5.1680  -5.1608  -5.1574
    -5.1564  -5.1537  -5.1472  -5.1447  -5.1427  -5.1388  -5.1350  -5.1329
    -5.1264  -5.1250  -5.1163  -5.1118  -5.0985  -5.0570  -5.0343  -5.0331
    -4.4399  -3.9496  -3.9115  -3.8787  -3.3939  -3.3780  -3.3111  -2.7488
    -0.7417  -0.7192  -0.6930  -0.6081  -0.5801  -0.5538  -0.5294  -0.4759
    -0.4389  -0.4110  -0.3277  -0.2631   0.4369   0.4778   0.4853   0.5963
     0.6166   0.6616   0.7247   0.7591   0.7972   0.8810   0.9221   0.9442
     0.9897   0.9979   1.0510   1.0824   1.1206   1.1247   1.1583   1.1723
     1.2053   1.2098   1.2534   1.2759   1.3003   1.3254   1.3467   1.3686
     1.3968   1.4125   1.4348   1.4606   1.4766   1.4957   1.5186   1.5373
     1.5749   1.5830   1.6010   1.6249   1.6543   1.6679   1.6989   1.7183
     1.7546   1.7969   1.8092   1.9349   2.0000   2.0222   2.0726   2.1024
     2.1313   2.1649   2.2482   2.2860   2.6317   2.7279   2.8673   3.1957

          k =-0.1250 0.1250-0.1250 (132670 PWs)   bands (ev):

   -18.4432 -18.4052 -18.3812 -18.3751 -18.3695 -18.3610 -18.3445 -18.2839
   -18.2812 -18.2705 -18.2677 -18.2645 -18.2517 -18.2375 -18.2322 -18.2248
   -18.2216 -18.2173 -18.2107 -18.2095 -18.2005 -18.1999 -18.1982 -18.1853
   -18.1841 -18.1825 -18.1822 -18.1807 -18.1790 -18.1785 -18.1677 -18.1591
   -18.1527 -18.1467 -18.1387 -18.1367 -18.1304 -18.1237 -18.1220 -18.1171
   -18.1170 -18.1127 -18.1097 -18.0772 -18.0697 -18.0554 -18.0441 -18.0379
    -9.4467  -9.3442  -9.2939  -9.2585  -9.2004  -9.1476  -9.0949  -9.0337
    -9.0122  -8.9670  -8.9583  -8.9422  -8.9243  -8.8993  -8.8739  -8.8455
    -8.8075  -8.7845  -8.7701  -8.6843  -8.6505  -8.6396  -8.5891  -8.5401
    -5.2219  -5.2145  -5.2131  -5.1786  -5.1739  -5.1680  -5.1613  -5.1567
    -5.1563  -5.1545  -5.1473  -5.1449  -5.1424  -5.1384  -5.1353  -5.1331
    -5.1258  -5.1250  -5.1163  -5.1122  -5.0986  -5.0569  -5.0344  -5.0331
    -4.4404  -3.9413  -3.9149  -3.8839  -3.3966  -3.3672  -3.3182  -2.7495
    -0.7501  -0.7122  -0.6767  -0.6060  -0.5841  -0.5540  -0.5205  -0.4941
    -0.4401  -0.4189  -0.3287  -0.2590   0.4463   0.4714   0.4858   0.5983
     0.6181   0.6625   0.7266   0.7634   0.7963   0.8828   0.9087   0.9274
     0.9859   1.0321   1.0498   1.0747   1.0967   1.1342   1.1547   1.1794
     1.1955   1.2345   1.2524   1.2790   1.2953   1.3124   1.3242   1.3674
     1.4001   1.4156   1.4466   1.4667   1.4817   1.5068   1.5136   1.5447
     1.5567   1.5775   1.6172   1.6244   1.6463   1.6679   1.7198   1.7263
     1.7512   1.7932   1.8100   1.9233   1.9947   2.0301   2.0685   2.0933
     2.1354   2.1680   2.2395   2.2852   2.6355   2.7450   2.8601   3.1879

          k = 0.1250-0.1250-0.1250 (132670 PWs)   bands (ev):

   -18.4432 -18.4052 -18.3812 -18.3751 -18.3695 -18.3610 -18.3445 -18.2839
   -18.2812 -18.2705 -18.2677 -18.2645 -18.2517 -18.2375 -18.2322 -18.2248
   -18.2216 -18.2173 -18.2107 -18.2095 -18.2005 -18.1999 -18.1982 -18.1853
   -18.1841 -18.1825 -18.1822 -18.1807 -18.1790 -18.1785 -18.1677 -18.1591
   -18.1527 -18.1467 -18.1387 -18.1367 -18.1304 -18.1237 -18.1220 -18.1171
   -18.1170 -18.1127 -18.1097 -18.0772 -18.0697 -18.0554 -18.0441 -18.0379
    -9.4467  -9.3440  -9.2948  -9.2573  -9.2003  -9.1488  -9.0963  -9.0314
    -9.0075  -8.9678  -8.9599  -8.9485  -8.9203  -8.9063  -8.8644  -8.8480
    -8.8066  -8.7838  -8.7720  -8.6845  -8.6498  -8.6405  -8.5887  -8.5401
    -5.2219  -5.2145  -5.2131  -5.1786  -5.1739  -5.1681  -5.1610  -5.1576
    -5.1559  -5.1544  -5.1477  -5.1443  -5.1424  -5.1386  -5.1354  -5.1330
    -5.1258  -5.1249  -5.1163  -5.1119  -5.0987  -5.0569  -5.0343  -5.0331
    -4.4404  -3.9442  -3.9079  -3.8881  -3.3961  -3.3608  -3.3259  -2.7484
    -0.7437  -0.6985  -0.6961  -0.6294  -0.5895  -0.5401  -0.5219  -0.4863
    -0.4336  -0.4200  -0.3184  -0.2617   0.4382   0.4721   0.4889   0.5951
     0.6198   0.6646   0.7191   0.7601   0.7936   0.8741   0.9163   0.9351
     0.9831   1.0180   1.0551   1.0742   1.0992   1.1400   1.1720   1.1788
     1.2104   1.2291   1.2556   1.2715   1.2970   1.3132   1.3471   1.3698
     1.3878   1.4227   1.4374   1.4543   1.4628   1.4934   1.5254   1.5356
     1.5591   1.5777   1.6086   1.6305   1.6441   1.6676   1.7171   1.7318
     1.7485   1.7885   1.8093   1.9466   2.0048   2.0281   2.0614   2.1079
     2.1303   2.1578   2.2546   2.2844   2.6332   2.7163   2.8733   3.1890

          k =-0.1250-0.1250 0.3750 (132608 PWs)   bands (ev):

   -18.4432 -18.4052 -18.3812 -18.3751 -18.3695 -18.3610 -18.3445 -18.2838
   -18.2812 -18.2705 -18.2677 -18.2645 -18.2517 -18.2375 -18.2322 -18.2248
   -18.2216 -18.2173 -18.2107 -18.2095 -18.2005 -18.1999 -18.1982 -18.1853
   -18.1841 -18.1825 -18.1822 -18.1807 -18.1790 -18.1785 -18.1677 -18.1591
   -18.1527 -18.1467 -18.1387 -18.1367 -18.1304 -18.1237 -18.1220 -18.1171
   -18.1170 -18.1127 -18.1097 -18.0772 -18.0697 -18.0554 -18.0441 -18.0379
    -9.4245  -9.3353  -9.3250  -9.2398  -9.2208  -9.1757  -9.1043  -9.0311
    -8.9920  -8.9692  -8.9622  -8.9431  -8.9180  -8.9075  -8.8493  -8.8302
    -8.7919  -8.7868  -8.7752  -8.6939  -8.6591  -8.6349  -8.5980  -8.5404
    -5.2216  -5.2141  -5.2129  -5.1775  -5.1745  -5.1672  -5.1595  -5.1584
    -5.1568  -5.1532  -5.1465  -5.1454  -5.1428  -5.1394  -5.1354  -5.1336
    -5.1265  -5.1254  -5.1164  -5.1120  -5.0987  -5.0571  -5.0344  -5.0329
    -4.3099  -4.1016  -3.7936  -3.7611  -3.5715  -3.5410  -3.2120  -2.9650
    -0.7038  -0.6632  -0.6258  -0.5772  -0.5524  -0.5061  -0.4219  -0.3918
    -0.1711  -0.1399  -0.0629   0.0502   0.3892   0.4314   0.4799   0.5103
     0.5558   0.5784   0.6112   0.6440   0.6635   0.7073   0.7446   0.7774
     0.8171   0.8642   0.9931   1.0626   1.0817   1.1167   1.1523   1.1712
     1.1921   1.2312   1.2476   1.2819   1.3055   1.3368   1.3547   1.3626
     1.3966   1.4063   1.4475   1.4785   1.5050   1.5168   1.5283   1.5610
     1.5764   1.6068   1.6245   1.6559   1.6630   1.6955   1.7262   1.7513
     1.7787   1.8050   1.8430   1.8657   1.9182   1.9710   1.9879   2.0104
     2.0500   2.1610   2.2592   2.3165   2.4192   2.4901   2.8526   2.9579

          k =-0.1250 0.1250-0.3750 (132608 PWs)   bands (ev):

   -18.4432 -18.4052 -18.3812 -18.3751 -18.3695 -18.3610 -18.3445 -18.2838
   -18.2812 -18.2705 -18.2677 -18.2645 -18.2517 -18.2375 -18.2322 -18.2248
   -18.2216 -18.2173 -18.2107 -18.2095 -18.2005 -18.1999 -18.1982 -18.1853
   -18.1841 -18.1825 -18.1822 -18.1807 -18.1790 -18.1785 -18.1677 -18.1591
   -18.1527 -18.1467 -18.1387 -18.1367 -18.1304 -18.1237 -18.1220 -18.1171
   -18.1170 -18.1127 -18.1097 -18.0772 -18.0697 -18.0554 -18.0441 -18.0379
    -9.4249  -9.3357  -9.3226  -9.2376  -9.2296  -9.1697  -9.1027  -9.0335
    -9.0000  -8.9656  -8.9592  -8.9403  -8.9182  -8.9085  -8.8488  -8.8266
    -8.7985  -8.7870  -8.7734  -8.6939  -8.6586  -8.6348  -8.5982  -8.5403
    -5.2215  -5.2141  -5.2130  -5.1775  -5.1744  -5.1669  -5.1604  -5.1578
    -5.1561  -5.1543  -5.1465  -5.1455  -5.1426  -5.1390  -5.1356  -5.1338
    -5.1260  -5.1253  -5.1164  -5.1123  -5.0988  -5.0570  -5.0345  -5.0329
    -4.3111  -4.0992  -3.7942  -3.7645  -3.5699  -3.5375  -3.2150  -2.9648
    -0.7168  -0.6391  -0.6143  -0.5752  -0.5590  -0.5105  -0.4332  -0.4010
    -0.1666  -0.1349  -0.0746   0.0568   0.3976   0.4449   0.4958   0.5088
     0.5265   0.5662   0.6186   0.6485   0.6693   0.6903   0.7392   0.7766
     0.8087   0.8734   1.0218   1.0431   1.0962   1.1198   1.1368   1.1772
     1.2059   1.2167   1.2573   1.2826   1.2914   1.3146   1.3425   1.3671
     1.4042   1.4228   1.4432   1.4596   1.5109   1.5198   1.5334   1.5571
     1.5850   1.6226   1.6338   1.6588   1.6787   1.6897   1.7330   1.7502
     1.7702   1.8011   1.8286   1.8715   1.9124   1.9603   1.9811   2.0261
     2.0410   2.1581   2.2558   2.3108   2.4487   2.4829   2.8468   2.9568

          k = 0.1250-0.1250-0.3750 (132608 PWs)   bands (ev):

   -18.4432 -18.4052 -18.3812 -18.3751 -18.3695 -18.3610 -18.3445 -18.2838
   -18.2812 -18.2705 -18.2677 -18.2645 -18.2517 -18.2375 -18.2322 -18.2248
   -18.2216 -18.2173 -18.2107 -18.2095 -18.2005 -18.1999 -18.1982 -18.1853
   -18.1841 -18.1825 -18.1822 -18.1807 -18.1790 -18.1785 -18.1677 -18.1591
   -18.1527 -18.1467 -18.1387 -18.1367 -18.1304 -18.1237 -18.1220 -18.1171
   -18.1170 -18.1127 -18.1097 -18.0772 -18.0697 -18.0554 -18.0441 -18.0379
    -9.4250  -9.3351  -9.3232  -9.2406  -9.2246  -9.1724  -9.1036  -9.0314
    -8.9928  -8.9704  -8.9617  -8.9433  -8.9171  -8.9097  -8.8460  -8.8253
    -8.7988  -8.7835  -8.7780  -8.6940  -8.6583  -8.6355  -8.5977  -8.5403
    -5.2215  -5.2142  -5.2129  -5.1775  -5.1745  -5.1670  -5.1597  -5.1582
    -5.1565  -5.1541  -5.1477  -5.1442  -5.1426  -5.1392  -5.1356  -5.1338
    -5.1261  -5.1252  -5.1164  -5.1121  -5.0990  -5.0569  -5.0344  -5.0330
    -4.3111  -4.0993  -3.7930  -3.7659  -3.5712  -3.5345  -3.2184  -2.9625
    -0.7139  -0.6457  -0.6124  -0.5812  -0.5659  -0.5018  -0.4266  -0.4041
    -0.1777  -0.1313  -0.0558   0.0687   0.3776   0.4288   0.4691   0.5161
     0.5464   0.5718   0.6292   0.6447   0.6609   0.6946   0.7379   0.7813
     0.8099   0.8723   1.0121   1.0411   1.0924   1.1099   1.1541   1.1829
     1.2058   1.2257   1.2707   1.2834   1.3037   1.3239   1.3448   1.3696
     1.3916   1.4258   1.4323   1.4567   1.4932   1.5021   1.5367   1.5639
     1.5811   1.6000   1.6367   1.6520   1.6855   1.7062   1.7253   1.7482
     1.7730   1.8021   1.8366   1.8751   1.9100   1.9685   1.9952   2.0095
     2.0503   2.1564   2.2656   2.3227   2.4289   2.4724   2.8501   2.9565

          k = 0.3750-0.1250 0.1250 (132608 PWs)   bands (ev):

   -18.4432 -18.4052 -18.3812 -18.3751 -18.3695 -18.3610 -18.3445 -18.2838
   -18.2812 -18.2705 -18.2677 -18.2645 -18.2517 -18.2375 -18.2322 -18.2248
   -18.2216 -18.2173 -18.2107 -18.2095 -18.2005 -18.1999 -18.1982 -18.1853
   -18.1841 -18.1824 -18.1822 -18.1807 -18.1790 -18.1785 -18.1677 -18.1591
   -18.1527 -18.1467 -18.1387 -18.1367 -18.1304 -18.1237 -18.1220 -18.1171
   -18.1170 -18.1127 -18.1097 -18.0772 -18.0697 -18.0554 -18.0441 -18.0379
    -9.4237  -9.3630  -9.2809  -9.2584  -9.2133  -9.1740  -9.1074  -9.0384
    -9.0085  -8.9670  -8.9548  -8.9409  -8.9080  -8.8793  -8.8650  -8.8490
    -8.8096  -8.7840  -8.7638  -8.6927  -8.6523  -8.6391  -8.5817  -8.5536
    -5.2218  -5.2141  -5.2129  -5.1774  -5.1744  -5.1660  -5.1612  -5.1574
    -5.1568  -5.1546  -5.1473  -5.1448  -5.1432  -5.1381  -5.1353  -5.1332
    -5.1266  -5.1250  -5.1165  -5.1126  -5.0988  -5.0570  -5.0341  -5.0332
    -4.3148  -4.0860  -3.8066  -3.7629  -3.5745  -3.5237  -3.2206  -2.9683
    -0.7204  -0.6600  -0.6457  -0.5832  -0.5544  -0.5042  -0.4735  -0.3910
    -0.1301  -0.0942  -0.0668   0.0589   0.3759   0.4326   0.4829   0.5214
     0.5673   0.5814   0.6049   0.6443   0.6791   0.7197   0.7428   0.7937
     0.8439   0.9186   1.0026   1.0309   1.0871   1.1112   1.1264   1.1470
     1.1839   1.2223   1.2373   1.2853   1.2966   1.3237   1.3390   1.3745
     1.4052   1.4254   1.4467   1.4718   1.5010   1.5195   1.5468   1.5657
     1.6068   1.6121   1.6314   1.6553   1.6878   1.7059   1.7347   1.7556
     1.7813   1.7908   1.8530   1.8708   1.9076   1.9360   1.9714   2.0382
     2.0754   2.0964   2.1929   2.3123   2.3790   2.5073   2.7935   2.9081

          k =-0.3750-0.1250-0.1250 (132608 PWs)   bands (ev):

   -18.4432 -18.4052 -18.3812 -18.3751 -18.3695 -18.3610 -18.3445 -18.2838
   -18.2812 -18.2705 -18.2677 -18.2645 -18.2517 -18.2375 -18.2322 -18.2248
   -18.2216 -18.2173 -18.2107 -18.2095 -18.2005 -18.1999 -18.1982 -18.1853
   -18.1841 -18.1824 -18.1822 -18.1807 -18.1790 -18.1785 -18.1677 -18.1591
   -18.1527 -18.1467 -18.1387 -18.1367 -18.1304 -18.1237 -18.1220 -18.1171
   -18.1170 -18.1127 -18.1097 -18.0772 -18.0697 -18.0554 -18.0441 -18.0379
    -9.4234  -9.3640  -9.2785  -9.2589  -9.2138  -9.1755  -9.1067  -9.0378
    -9.0092  -8.9655  -8.9577  -8.9412  -8.9012  -8.8820  -8.8667  -8.8523
    -8.8020  -8.7906  -8.7614  -8.6936  -8.6514  -8.6396  -8.5816  -8.5538
    -5.2217  -5.2141  -5.2129  -5.1778  -5.1744  -5.1661  -5.1607  -5.1575
    -5.1560  -5.1552  -5.1477  -5.1445  -5.1434  -5.1382  -5.1354  -5.1328
    -5.1272  -5.1248  -5.1164  -5.1125  -5.0987  -5.0570  -5.0340  -5.0332
    -4.3147  -4.0868  -3.7909  -3.7790  -3.5586  -3.5403  -3.2212  -2.9653
    -0.6965  -0.6817  -0.6544  -0.5877  -0.5608  -0.5163  -0.4653  -0.3771
    -0.1322  -0.0867  -0.0604   0.0720   0.3748   0.4356   0.4741   0.4994
     0.5651   0.5931   0.6049   0.6469   0.6757   0.7191   0.7444   0.8002
     0.8347   0.9230   0.9877   1.0342   1.0671   1.0895   1.1520   1.1641
     1.1942   1.2294   1.2370   1.2728   1.3062   1.3322   1.3507   1.3916
     1.4007   1.4160   1.4435   1.4764   1.4939   1.5007   1.5217   1.5730
     1.5992   1.6027   1.6500   1.6528   1.6908   1.7092   1.7359   1.7467
     1.7866   1.8019   1.8385   1.8844   1.9128   1.9231   1.9674   2.0546
     2.0789   2.1109   2.1773   2.2957   2.3891   2.4998   2.7850   2.9316

          k = 0.3750 0.1250-0.1250 (132608 PWs)   bands (ev):

   -18.4432 -18.4052 -18.3812 -18.3751 -18.3695 -18.3610 -18.3445 -18.2838
   -18.2812 -18.2705 -18.2677 -18.2645 -18.2517 -18.2375 -18.2322 -18.2248
   -18.2216 -18.2173 -18.2107 -18.2095 -18.2005 -18.1999 -18.1982 -18.1853
   -18.1841 -18.1824 -18.1822 -18.1807 -18.1790 -18.1785 -18.1677 -18.1591
   -18.1527 -18.1467 -18.1387 -18.1367 -18.1304 -18.1237 -18.1220 -18.1171
   -18.1170 -18.1127 -18.1097 -18.0772 -18.0697 -18.0554 -18.0441 -18.0379
    -9.4230  -9.3642  -9.2856  -9.2504  -9.2093  -9.1827  -9.1077  -9.0367
    -9.0051  -8.9677  -8.9560  -8.9397  -8.9048  -8.8845  -8.8703  -8.8492
    -8.8008  -8.7889  -8.7617  -8.6934  -8.6515  -8.6399  -8.5816  -8.5538
    -5.2218  -5.2141  -5.2128  -5.1776  -5.1744  -5.1662  -5.1603  -5.1583
    -5.1567  -5.1540  -5.1473  -5.1445  -5.1434  -5.1385  -5.1350  -5.1330
    -5.1273  -5.1250  -5.1165  -5.1123  -5.0987  -5.0572  -5.0340  -5.0332
    -4.3134  -4.0894  -3.8044  -3.7609  -3.5745  -3.5278  -3.2189  -2.9678
    -0.7089  -0.6813  -0.6437  -0.5848  -0.5551  -0.5009  -0.4717  -0.3906
    -0.1360  -0.0966  -0.0407   0.0558   0.3626   0.4360   0.4819   0.5096
     0.5668   0.5836   0.5990   0.6578   0.6708   0.7126   0.7625   0.7945
     0.8534   0.9159   0.9808   1.0550   1.0706   1.1130   1.1273   1.1556
     1.1768   1.2265   1.2451   1.2849   1.3086   1.3195   1.3543   1.3738
     1.3867   1.4148   1.4479   1.4735   1.4918   1.5145   1.5499   1.5763
     1.5843   1.6108   1.6384   1.6600   1.6827   1.7147   1.7279   1.7441
     1.7710   1.8045   1.8434   1.8838   1.9140   1.9393   1.9713   2.0507
     2.0772   2.0956   2.1974   2.3225   2.3558   2.4991   2.7986   2.9107

          k =-0.3750 0.1250 0.1250 (132608 PWs)   bands (ev):

   -18.4432 -18.4052 -18.3812 -18.3751 -18.3695 -18.3610 -18.3445 -18.2838
   -18.2812 -18.2705 -18.2677 -18.2645 -18.2517 -18.2375 -18.2322 -18.2248
   -18.2216 -18.2173 -18.2107 -18.2095 -18.2005 -18.1999 -18.1982 -18.1853
   -18.1841 -18.1824 -18.1822 -18.1807 -18.1790 -18.1785 -18.1677 -18.1591
   -18.1527 -18.1467 -18.1387 -18.1367 -18.1304 -18.1237 -18.1220 -18.1171
   -18.1170 -18.1127 -18.1097 -18.0772 -18.0697 -18.0554 -18.0441 -18.0379
    -9.4236  -9.3633  -9.2827  -9.2555  -9.2099  -9.1799  -9.1072  -9.0365
    -9.0056  -8.9671  -8.9587  -8.9434  -8.8975  -8.8913  -8.8588  -8.8513
    -8.8074  -8.7850  -8.7642  -8.6930  -8.6510  -8.6403  -8.5814  -8.5537
    -5.2218  -5.2141  -5.2128  -5.1774  -5.1746  -5.1664  -5.1607  -5.1576
    -5.1561  -5.1549  -5.1476  -5.1445  -5.1430  -5.1384  -5.1357  -5.1330
    -5.1265  -5.1249  -5.1165  -5.1124  -5.0989  -5.0570  -5.0340  -5.0333
    -4.3142  -4.0888  -3.7880  -3.7779  -3.5595  -3.5435  -3.2167  -2.9686
    -0.6979  -0.6818  -0.6530  -0.6013  -0.5507  -0.5013  -0.4570  -0.3872
    -0.1275  -0.1053  -0.0376   0.0400   0.3651   0.4327   0.4914   0.5183
     0.5538   0.5794   0.6121   0.6532   0.6795   0.7096   0.7538   0.7952
     0.8396   0.9242   1.0013   1.0164   1.0875   1.0986   1.1406   1.1653
     1.1715   1.2247   1.2603   1.2828   1.2957   1.3147   1.3689   1.3786
     1.4047   1.4243   1.4355   1.4548   1.4879   1.5123   1.5334   1.5631
     1.5870   1.6110   1.6457   1.6593   1.6994   1.7096   1.7249   1.7463
     1.7789   1.8042   1.8437   1.8765   1.9145   1.9458   1.9817   2.0483
     2.0788   2.1051   2.1917   2.3213   2.3541   2.4853   2.8112   2.9028

          k =-0.1250 0.3750 0.1250 (132608 PWs)   bands (ev):

   -18.4432 -18.4052 -18.3812 -18.3751 -18.3696 -18.3610 -18.3445 -18.2839
   -18.2812 -18.2705 -18.2677 -18.2645 -18.2517 -18.2375 -18.2322 -18.2248
   -18.2216 -18.2173 -18.2107 -18.2095 -18.2005 -18.1999 -18.1982 -18.1853
   -18.1841 -18.1824 -18.1822 -18.1807 -18.1790 -18.1785 -18.1677 -18.1591
   -18.1527 -18.1467 -18.1387 -18.1367 -18.1304 -18.1237 -18.1220 -18.1171
   -18.1170 -18.1127 -18.1097 -18.0772 -18.0697 -18.0554 -18.0441 -18.0379
    -9.4252  -9.3598  -9.2862  -9.2575  -9.2114  -9.1736  -9.1049  -9.0322
    -9.0077  -8.9652  -8.9520  -8.9446  -8.9227  -8.8859  -8.8675  -8.8443
    -8.8039  -8.7819  -8.7683  -8.6779  -8.6503  -8.6447  -8.5934  -8.5475
    -5.2217  -5.2139  -5.2131  -5.1772  -5.1743  -5.1673  -5.1603  -5.1581
    -5.1551  -5.1542  -5.1479  -5.1442  -5.1436  -5.1390  -5.1365  -5.1322
    -5.1266  -5.1247  -5.1164  -5.1126  -5.0990  -5.0567  -5.0344  -5.0333
    -4.3136  -4.0791  -3.8138  -3.7654  -3.5669  -3.5202  -3.2400  -2.9623
    -0.7229  -0.6850  -0.6149  -0.5974  -0.5804  -0.5186  -0.4511  -0.3721
    -0.1320  -0.1056  -0.0368   0.0519   0.4126   0.4270   0.4707   0.5273
     0.5595   0.5744   0.6064   0.6669   0.7106   0.7387   0.7591   0.7926
     0.9112   0.9437   0.9579   0.9946   1.0498   1.0688   1.1050   1.1230
     1.1679   1.2008   1.2299   1.2649   1.3122   1.3400   1.3499   1.3792
     1.4096   1.4334   1.4650   1.4822   1.4986   1.5395   1.5459   1.5845
     1.6039   1.6198   1.6439   1.6676   1.6750   1.7065   1.7381   1.7623
     1.7920   1.8037   1.8166   1.8571   1.9228   1.9631   1.9817   2.0295
     2.0613   2.1130   2.1578   2.2916   2.3429   2.5219   2.7259   2.8655

          k =-0.1250-0.3750-0.1250 (132608 PWs)   bands (ev):

   -18.4432 -18.4052 -18.3812 -18.3751 -18.3696 -18.3610 -18.3445 -18.2839
   -18.2812 -18.2705 -18.2677 -18.2645 -18.2517 -18.2375 -18.2322 -18.2248
   -18.2216 -18.2173 -18.2107 -18.2095 -18.2005 -18.1999 -18.1982 -18.1853
   -18.1841 -18.1824 -18.1822 -18.1807 -18.1790 -18.1785 -18.1677 -18.1591
   -18.1527 -18.1467 -18.1387 -18.1367 -18.1304 -18.1237 -18.1220 -18.1171
   -18.1170 -18.1127 -18.1097 -18.0772 -18.0697 -18.0554 -18.0441 -18.0379
    -9.4250  -9.3610  -9.2828  -9.2600  -9.2107  -9.1745  -9.1035  -9.0338
    -9.0126  -8.9651  -8.9479  -8.9391  -8.9199  -8.8911  -8.8702  -8.8451
    -8.8012  -8.7857  -8.7652  -8.6781  -8.6501  -8.6447  -8.5935  -8.5476
    -5.2216  -5.2140  -5.2131  -5.1775  -5.1741  -5.1672  -5.1599  -5.1580
    -5.1553  -5.1542  -5.1481  -5.1443  -5.1436  -5.1389  -5.1360  -5.1320
    -5.1272  -5.1246  -5.1163  -5.1127  -5.0989  -5.0567  -5.0345  -5.0333
    -4.3135  -4.0799  -3.8028  -3.7765  -3.5569  -3.5304  -3.2407  -2.9600
    -0.7157  -0.6889  -0.6336  -0.6080  -0.5595  -0.5166  -0.4483  -0.3840
    -0.1364  -0.0940  -0.0252   0.0585   0.4008   0.4300   0.4716   0.5129
     0.5647   0.5752   0.6064   0.6616   0.7180   0.7376   0.7676   0.7906
     0.9098   0.9377   0.9757   0.9938   1.0247   1.0538   1.0970   1.1378
     1.1843   1.2199   1.2344   1.2556   1.2873   1.3016   1.3660   1.3955
     1.4154   1.4484   1.4733   1.4900   1.5159   1.5238   1.5408   1.5758
     1.6112   1.6223   1.6483   1.6590   1.6806   1.7134   1.7402   1.7609
     1.7725   1.7991   1.8239   1.8634   1.9196   1.9568   1.9810   2.0258
     2.0558   2.0969   2.1577   2.3051   2.3424   2.5060   2.7311   2.8960

          k = 0.1250 0.3750-0.1250 (132608 PWs)   bands (ev):

   -18.4432 -18.4052 -18.3812 -18.3751 -18.3696 -18.3610 -18.3445 -18.2839
   -18.2812 -18.2705 -18.2677 -18.2645 -18.2517 -18.2375 -18.2322 -18.2248
   -18.2216 -18.2173 -18.2107 -18.2095 -18.2005 -18.1999 -18.1982 -18.1853
   -18.1841 -18.1824 -18.1822 -18.1807 -18.1790 -18.1785 -18.1677 -18.1591
   -18.1527 -18.1467 -18.1387 -18.1367 -18.1304 -18.1237 -18.1220 -18.1171
   -18.1170 -18.1127 -18.1097 -18.0772 -18.0697 -18.0554 -18.0441 -18.0379
    -9.4246  -9.3612  -9.2894  -9.2513  -9.2090  -9.1796  -9.1045  -9.0325
    -9.0073  -8.9655  -8.9517  -8.9401  -8.9221  -8.8832  -8.8728  -8.8523
    -8.7969  -8.7844  -8.7659  -8.6778  -8.6515  -8.6435  -8.5938  -8.5476
    -5.2217  -5.2139  -5.2131  -5.1774  -5.1743  -5.1673  -5.1601  -5.1575
    -5.1560  -5.1534  -5.1475  -5.1449  -5.1434  -5.1393  -5.1362  -5.1320
    -5.1273  -5.1247  -5.1164  -5.1125  -5.0988  -5.0569  -5.0344  -5.0333
    -4.3121  -4.0825  -3.8111  -3.7634  -3.5676  -3.5253  -3.2352  -2.9637
    -0.7204  -0.6955  -0.6228  -0.5885  -0.5694  -0.5164  -0.4412  -0.3932
    -0.1423  -0.0876  -0.0320   0.0381   0.4080   0.4433   0.4667   0.5226
     0.5543   0.5794   0.6064   0.6808   0.7076   0.7372   0.7673   0.7946
     0.9170   0.9368   0.9663   0.9773   1.0307   1.0660   1.1177   1.1301
     1.1603   1.2063   1.2328   1.2538   1.3100   1.3242   1.3541   1.3830
     1.4170   1.4440   1.4713   1.4834   1.5064   1.5333   1.5473   1.5728
     1.6143   1.6249   1.6490   1.6582   1.6846   1.7041   1.7214   1.7595
     1.7791   1.8044   1.8329   1.8703   1.9153   1.9375   1.9805   2.0389
     2.0554   2.1067   2.1647   2.2944   2.3579   2.5116   2.7291   2.8684

          k = 0.1250-0.3750 0.1250 (132608 PWs)   bands (ev):

   -18.4432 -18.4052 -18.3812 -18.3751 -18.3696 -18.3610 -18.3445 -18.2839
   -18.2812 -18.2705 -18.2677 -18.2645 -18.2517 -18.2375 -18.2322 -18.2248
   -18.2216 -18.2173 -18.2107 -18.2095 -18.2005 -18.1999 -18.1982 -18.1853
   -18.1841 -18.1824 -18.1822 -18.1807 -18.1790 -18.1785 -18.1677 -18.1591
   -18.1527 -18.1467 -18.1387 -18.1367 -18.1304 -18.1237 -18.1220 -18.1171
   -18.1170 -18.1127 -18.1097 -18.0772 -18.0697 -18.0554 -18.0441 -18.0379
    -9.4250  -9.3604  -9.2860  -9.2577  -9.2088  -9.1762  -9.1031  -9.0347
    -9.0122  -8.9656  -8.9488  -8.9374  -8.9207  -8.8840  -8.8743  -8.8490
    -8.8018  -8.7812  -8.7680  -8.6773  -8.6513  -8.6435  -8.5938  -8.5474
    -5.2217  -5.2139  -5.2131  -5.1772  -5.1742  -5.1673  -5.1605  -5.1572
    -5.1564  -5.1534  -5.1476  -5.1451  -5.1432  -5.1390  -5.1363  -5.1323
    -5.1265  -5.1248  -5.1163  -5.1128  -5.0989  -5.0567  -5.0345  -5.0333
    -4.3129  -4.0820  -3.8001  -3.7749  -3.5590  -3.5343  -3.2331  -2.9651
    -0.7207  -0.6925  -0.6301  -0.5987  -0.5596  -0.5044  -0.4491  -0.3763
    -0.1437  -0.0961  -0.0409   0.0281   0.4222   0.4355   0.4726   0.5306
     0.5580   0.5703   0.6025   0.6766   0.7122   0.7455   0.7652   0.7940
     0.9039   0.9420   0.9682   1.0002   1.0258   1.0498   1.1067   1.1279
     1.1747   1.2046   1.2407   1.2595   1.2833   1.3270   1.3449   1.3770
     1.4252   1.4483   1.4677   1.4978   1.5169   1.5264   1.5471   1.5928
     1.6078   1.6222   1.6371   1.6628   1.6802   1.7164   1.7272   1.7662
     1.7820   1.8061   1.8291   1.8559   1.9218   1.9336   1.9723   2.0289
     2.0541   2.1147   2.1691   2.2807   2.3559   2.5001   2.7601   2.8641

          k =-0.1250-0.3750 0.3750 (132616 PWs)   bands (ev):

   -18.4432 -18.4052 -18.3812 -18.3751 -18.3696 -18.3610 -18.3445 -18.2839
   -18.2812 -18.2705 -18.2677 -18.2645 -18.2517 -18.2375 -18.2322 -18.2248
   -18.2216 -18.2173 -18.2107 -18.2095 -18.2005 -18.1999 -18.1982 -18.1853
   -18.1841 -18.1824 -18.1822 -18.1807 -18.1790 -18.1785 -18.1677 -18.1591
   -18.1527 -18.1467 -18.1387 -18.1367 -18.1304 -18.1237 -18.1220 -18.1171
   -18.1170 -18.1127 -18.1097 -18.0772 -18.0697 -18.0554 -18.0441 -18.0379
    -9.4030  -9.3429  -9.3200  -9.2521  -9.2242  -9.1902  -9.1233  -9.0367
    -8.9907  -8.9658  -8.9585  -8.9318  -8.9141  -8.8913  -8.8500  -8.8275
    -8.7935  -8.7889  -8.7713  -8.6841  -8.6619  -8.6388  -8.6000  -8.5477
    -5.2216  -5.2138  -5.2130  -5.1770  -5.1749  -5.1668  -5.1599  -5.1576
    -5.1562  -5.1530  -5.1478  -5.1457  -5.1430  -5.1398  -5.1362  -5.1320
    -5.1273  -5.1247  -5.1164  -5.1125  -5.0988  -5.0569  -5.0345  -5.0330
    -4.1823  -4.0081  -3.9158  -3.7294  -3.6533  -3.4790  -3.3629  -3.1604
    -0.6614  -0.6126  -0.5845  -0.4787  -0.3675  -0.2744  -0.2265  -0.1538
    -0.1133  -0.0558   0.0471   0.1385   0.3194   0.3988   0.4262   0.4739
     0.5264   0.5498   0.5823   0.5928   0.6202   0.6546   0.6884   0.7265
     0.8047   0.8497   0.9030   0.9590   0.9879   1.0169   1.0633   1.0959
     1.1067   1.1584   1.1726   1.2250   1.2463   1.2843   1.3210   1.3706
     1.3813   1.4506   1.4570   1.5016   1.5266   1.5729   1.5953   1.6115
     1.6331   1.6464   1.6671   1.6886   1.7073   1.7224   1.7631   1.7785
     1.8250   1.8335   1.8571   1.8794   1.8835   1.9105   1.9563   1.9756
     1.9797   2.0349   2.0920   2.1139   2.3026   2.4472   2.5287   2.6156

          k =-0.1250 0.3750-0.3750 (132616 PWs)   bands (ev):

   -18.4432 -18.4052 -18.3812 -18.3751 -18.3696 -18.3610 -18.3445 -18.2838
   -18.2812 -18.2705 -18.2677 -18.2645 -18.2517 -18.2375 -18.2322 -18.2248
   -18.2216 -18.2173 -18.2107 -18.2095 -18.2005 -18.1999 -18.1982 -18.1853
   -18.1841 -18.1824 -18.1822 -18.1807 -18.1790 -18.1785 -18.1677 -18.1591
   -18.1527 -18.1467 -18.1387 -18.1367 -18.1304 -18.1237 -18.1220 -18.1171
   -18.1170 -18.1127 -18.1097 -18.0772 -18.0697 -18.0554 -18.0441 -18.0379
    -9.4036  -9.3425  -9.3184  -9.2527  -9.2281  -9.1872  -9.1215  -9.0397
    -8.9981  -8.9630  -8.9518  -8.9279  -8.9145  -8.8954  -8.8490  -8.8256
    -8.7983  -8.7878  -8.7717  -8.6842  -8.6604  -8.6391  -8.6002  -8.5475
    -5.2215  -5.2138  -5.2130  -5.1769  -5.1748  -5.1665  -5.1600  -5.1580
    -5.1558  -5.1535  -5.1480  -5.1455  -5.1430  -5.1395  -5.1363  -5.1323
    -5.1265  -5.1247  -5.1164  -5.1128  -5.0989  -5.0567  -5.0346  -5.0330
    -4.1839  -4.0065  -3.9152  -3.7271  -3.6558  -3.4796  -3.3622  -3.1612
    -0.6609  -0.6047  -0.5951  -0.4819  -0.3483  -0.2769  -0.2246  -0.1516
    -0.1099  -0.0644   0.0339   0.1284   0.3144   0.3887   0.4420   0.5170
     0.5266   0.5391   0.5617   0.5802   0.6198   0.6647   0.6914   0.7178
     0.8044   0.8543   0.9067   0.9583   0.9906   1.0259   1.0675   1.0839
     1.1054   1.1641   1.1910   1.2191   1.2442   1.2811   1.2981   1.3531
     1.3932   1.4138   1.4760   1.5179   1.5420   1.5824   1.6054   1.6150
     1.6325   1.6531   1.6651   1.6858   1.7094   1.7361   1.7562   1.7803
     1.8196   1.8287   1.8526   1.8663   1.8889   1.9059   1.9489   1.9658
     1.9812   2.0318   2.0878   2.1230   2.3023   2.4341   2.5452   2.6218

          k = 0.1250-0.3750-0.3750 (132616 PWs)   bands (ev):

   -18.4432 -18.4052 -18.3812 -18.3751 -18.3696 -18.3610 -18.3445 -18.2839
   -18.2812 -18.2705 -18.2677 -18.2645 -18.2517 -18.2375 -18.2322 -18.2248
   -18.2216 -18.2173 -18.2107 -18.2095 -18.2005 -18.1999 -18.1982 -18.1853
   -18.1841 -18.1824 -18.1822 -18.1807 -18.1790 -18.1785 -18.1677 -18.1591
   -18.1527 -18.1467 -18.1387 -18.1367 -18.1304 -18.1237 -18.1220 -18.1171
   -18.1170 -18.1127 -18.1097 -18.0772 -18.0697 -18.0554 -18.0441 -18.0379
    -9.4040  -9.3404  -9.3197  -9.2531  -9.2297  -9.1848  -9.1235  -9.0370
    -8.9916  -8.9662  -8.9583  -8.9316  -8.9130  -8.8958  -8.8454  -8.8177
    -8.8054  -8.7868  -8.7724  -8.6848  -8.6600  -8.6399  -8.5997  -8.5476
    -5.2215  -5.2138  -5.2130  -5.1769  -5.1749  -5.1666  -5.1601  -5.1573
    -5.1562  -5.1538  -5.1484  -5.1448  -5.1432  -5.1396  -5.1363  -5.1322
    -5.1266  -5.1246  -5.1164  -5.1127  -5.0990  -5.0567  -5.0345  -5.0331
    -4.1867  -3.9746  -3.9506  -3.7240  -3.6574  -3.4347  -3.4098  -3.1537
    -0.6643  -0.6075  -0.5822  -0.4804  -0.3502  -0.3149  -0.2246  -0.1480
    -0.0965  -0.0639   0.0472   0.1940   0.2866   0.3698   0.4403   0.4825
     0.5026   0.5306   0.5762   0.5895   0.6236   0.6770   0.6966   0.7272
     0.7762   0.8635   0.9114   0.9678   0.9870   1.0118   1.0648   1.0991
     1.1210   1.1595   1.1860   1.2170   1.2462   1.2849   1.3112   1.3700
     1.3961   1.4117   1.4586   1.5027   1.5356   1.5680   1.5990   1.6129
     1.6336   1.6504   1.6773   1.6917   1.6990   1.7137   1.7713   1.7898
     1.8162   1.8282   1.8426   1.8744   1.8968   1.9225   1.9549   1.9686
     1.9954   2.0268   2.0909   2.1076   2.3191   2.4454   2.5069   2.6236

          k = 0.3750 0.1250-0.3750 (132616 PWs)   bands (ev):

   -18.4432 -18.4052 -18.3812 -18.3751 -18.3695 -18.3610 -18.3445 -18.2838
   -18.2812 -18.2705 -18.2677 -18.2645 -18.2517 -18.2375 -18.2322 -18.2248
   -18.2216 -18.2173 -18.2107 -18.2095 -18.2005 -18.1999 -18.1982 -18.1853
   -18.1841 -18.1825 -18.1822 -18.1807 -18.1790 -18.1785 -18.1677 -18.1591
   -18.1527 -18.1467 -18.1387 -18.1367 -18.1304 -18.1237 -18.1220 -18.1171
   -18.1170 -18.1127 -18.1097 -18.0772 -18.0697 -18.0554 -18.0441 -18.0379
    -9.4023  -9.3482  -9.3126  -9.2530  -9.2202  -9.1971  -9.1210  -9.0496
    -8.9869  -8.9651  -8.9581  -8.9437  -8.8948  -8.8740  -8.8483  -8.8399
    -8.8000  -8.7884  -8.7676  -8.6980  -8.6594  -8.6383  -8.5870  -8.5546
    -5.2218  -5.2139  -5.2130  -5.1771  -5.1742  -5.1666  -5.1603  -5.1584
    -5.1563  -5.1534  -5.1470  -5.1445  -5.1434  -5.1397  -5.1352  -5.1333
    -5.1274  -5.1253  -5.1164  -5.1120  -5.0988  -5.0573  -5.0339  -5.0329
    -4.1838  -4.0149  -3.9156  -3.7374  -3.6445  -3.4658  -3.3588  -3.1673
    -0.6476  -0.6045  -0.5656  -0.4378  -0.4060  -0.3129  -0.2230  -0.1692
    -0.1203  -0.0429   0.0394   0.1676   0.2663   0.3947   0.4354   0.4747
     0.4871   0.5480   0.5896   0.5989   0.6284   0.6390   0.6730   0.7183
     0.8096   0.8746   0.9050   0.9501   0.9896   1.0229   1.0550   1.0864
     1.1188   1.1775   1.1978   1.2416   1.2685   1.2963   1.3177   1.3723
     1.3954   1.4152   1.4635   1.4944   1.5330   1.5410   1.5631   1.6011
     1.6233   1.6434   1.6627   1.6896   1.7002   1.7350   1.7541   1.7763
     1.7879   1.8354   1.8427   1.8866   1.9077   1.9170   1.9433   1.9611
     2.0012   2.0548   2.0727   2.1544   2.3486   2.4436   2.5804   2.6636

          k =-0.3750-0.1250-0.3750 (132616 PWs)   bands (ev):

   -18.4432 -18.4052 -18.3812 -18.3751 -18.3695 -18.3610 -18.3445 -18.2838
   -18.2812 -18.2705 -18.2677 -18.2645 -18.2517 -18.2375 -18.2322 -18.2248
   -18.2216 -18.2173 -18.2107 -18.2095 -18.2005 -18.1999 -18.1982 -18.1853
   -18.1841 -18.1825 -18.1822 -18.1807 -18.1790 -18.1785 -18.1677 -18.1591
   -18.1527 -18.1467 -18.1387 -18.1367 -18.1304 -18.1237 -18.1220 -18.1171
   -18.1170 -18.1127 -18.1097 -18.0772 -18.0697 -18.0554 -18.0441 -18.0379
    -9.4031  -9.3476  -9.3094  -9.2527  -9.2339  -9.1846  -9.1211  -9.0516
    -8.9914  -8.9621  -8.9583  -8.9437  -8.8942  -8.8716  -8.8478  -8.8366
    -8.8038  -8.7915  -8.7661  -8.6983  -8.6591  -8.6381  -8.5870  -8.5545
    -5.2216  -5.2139  -5.2131  -5.1773  -5.1741  -5.1664  -5.1609  -5.1577
    -5.1561  -5.1541  -5.1473  -5.1444  -5.1435  -5.1394  -5.1355  -5.1330
    -5.1273  -5.1251  -5.1164  -5.1121  -5.0989  -5.0571  -5.0339  -5.0330
    -4.1889  -3.9878  -3.9413  -3.7304  -3.6518  -3.4428  -3.3847  -3.1602
    -0.6506  -0.5993  -0.5648  -0.4529  -0.3723  -0.3483  -0.2358  -0.1762
    -0.1069  -0.0155   0.0409   0.1812   0.2822   0.3645   0.4520   0.4757
     0.4957   0.5275   0.5657   0.5935   0.6228   0.6496   0.6753   0.7134
     0.7969   0.8844   0.9039   0.9618   0.9975   1.0125   1.0503   1.0736
     1.1398   1.1774   1.2046   1.2343   1.2706   1.3030   1.3173   1.3798
     1.4071   1.4265   1.4526   1.4788   1.4994   1.5389   1.5845   1.6090
     1.6173   1.6470   1.6653   1.6947   1.7109   1.7197   1.7532   1.7777
     1.7990   1.8179   1.8634   1.8842   1.8992   1.9234   1.9388   1.9524
     1.9868   2.0382   2.0868   2.1711   2.3438   2.4623   2.5482   2.6866

          k = 0.3750-0.1250 0.3750 (132616 PWs)   bands (ev):

   -18.4432 -18.4052 -18.3812 -18.3751 -18.3695 -18.3610 -18.3445 -18.2838
   -18.2812 -18.2705 -18.2677 -18.2645 -18.2517 -18.2375 -18.2322 -18.2248
   -18.2216 -18.2173 -18.2107 -18.2095 -18.2005 -18.1999 -18.1982 -18.1853
   -18.1841 -18.1825 -18.1822 -18.1807 -18.1790 -18.1785 -18.1677 -18.1591
   -18.1527 -18.1467 -18.1387 -18.1367 -18.1304 -18.1237 -18.1220 -18.1171
   -18.1170 -18.1127 -18.1097 -18.0772 -18.0697 -18.0554 -18.0441 -18.0379
    -9.4032  -9.3465  -9.3115  -9.2510  -9.2338  -9.1858  -9.1204  -9.0522
    -8.9924  -8.9614  -8.9566  -8.9430  -8.8965  -8.8703  -8.8489  -8.8361
    -8.8078  -8.7859  -8.7682  -8.6979  -8.6589  -8.6382  -8.5873  -8.5544
    -5.2217  -5.2139  -5.2131  -5.1771  -5.1741  -5.1661  -5.1610  -5.1581
    -5.1557  -5.1545  -5.1470  -5.1448  -5.1431  -5.1393  -5.1355  -5.1335
    -5.1267  -5.1252  -5.1164  -5.1123  -5.0989  -5.0572  -5.0340  -5.0329
    -4.1882  -3.9890  -3.9423  -3.7325  -3.6476  -3.4425  -3.3817  -3.1647
    -0.6568  -0.5926  -0.5601  -0.4439  -0.3725  -0.3397  -0.2324  -0.1889
    -0.1188  -0.0281   0.0429   0.1632   0.2863   0.3586   0.4530   0.4888
     0.5143   0.5332   0.5762   0.5871   0.6175   0.6446   0.6747   0.7124
     0.7983   0.8839   0.9101   0.9687   0.9938   1.0174   1.0574   1.0676
     1.1352   1.1708   1.2061   1.2399   1.2576   1.2830   1.3095   1.3777
     1.4122   1.4404   1.4480   1.4872   1.5310   1.5409   1.5678   1.5878
     1.6208   1.6580   1.6821   1.6858   1.7092   1.7287   1.7573   1.7712
     1.8030   1.8168   1.8409   1.8830   1.8972   1.9244   1.9398   1.9564
     1.9869   2.0335   2.0880   2.1772   2.3478   2.4629   2.5565   2.6680

          k =-0.3750 0.1250 0.3750 (132616 PWs)   bands (ev):

   -18.4432 -18.4052 -18.3812 -18.3751 -18.3695 -18.3610 -18.3445 -18.2838
   -18.2812 -18.2705 -18.2677 -18.2645 -18.2517 -18.2375 -18.2322 -18.2248
   -18.2216 -18.2173 -18.2107 -18.2095 -18.2005 -18.1999 -18.1982 -18.1853
   -18.1841 -18.1825 -18.1822 -18.1807 -18.1790 -18.1785 -18.1677 -18.1591
   -18.1527 -18.1467 -18.1387 -18.1367 -18.1304 -18.1237 -18.1220 -18.1171
   -18.1170 -18.1127 -18.1097 -18.0772 -18.0697 -18.0554 -18.0441 -18.0379
    -9.4030  -9.3475  -9.3112  -9.2541  -9.2223  -9.1960  -9.1194  -9.0504
    -8.9871  -8.9664  -8.9584  -8.9434  -8.8938  -8.8733  -8.8474  -8.8376
    -8.8015  -8.7897  -8.7689  -8.6982  -8.6579  -8.6391  -8.5870  -8.5545
    -5.2217  -5.2139  -5.2130  -5.1770  -5.1743  -5.1666  -5.1607  -5.1573
    -5.1565  -5.1543  -5.1475  -5.1443  -5.1429  -5.1397  -5.1358  -5.1332
    -5.1267  -5.1251  -5.1164  -5.1121  -5.0990  -5.0572  -5.0339  -5.0330
    -4.1853  -4.0139  -3.9148  -3.7342  -3.6478  -3.4660  -3.3600  -3.1665
    -0.6525  -0.5997  -0.5602  -0.4487  -0.4004  -0.3216  -0.2063  -0.1589
    -0.1321  -0.0508   0.0511   0.1647   0.2618   0.3930   0.4326   0.4693
     0.4933   0.5424   0.5779   0.5984   0.6380   0.6494   0.6636   0.7215
     0.8045   0.8765   0.9025   0.9438   1.0060   1.0206   1.0527   1.0900
     1.1238   1.1614   1.2164   1.2333   1.2684   1.2971   1.3310   1.3717
     1.3989   1.4373   1.4604   1.4799   1.5046   1.5249   1.5722   1.5936
     1.6291   1.6408   1.6744   1.6868   1.7025   1.7403   1.7513   1.7799
     1.8027   1.8169   1.8556   1.8835   1.8992   1.9163   1.9463   1.9699
     2.0041   2.0512   2.0738   2.1563   2.3515   2.4291   2.5816   2.6659

          k = 0.3750-0.3750 0.1250 (132616 PWs)   bands (ev):

   -18.4432 -18.4052 -18.3812 -18.3751 -18.3695 -18.3610 -18.3445 -18.2838
   -18.2812 -18.2705 -18.2677 -18.2645 -18.2517 -18.2375 -18.2322 -18.2248
   -18.2216 -18.2173 -18.2107 -18.2095 -18.2005 -18.1999 -18.1982 -18.1853
   -18.1841 -18.1824 -18.1822 -18.1807 -18.1790 -18.1785 -18.1677 -18.1591
   -18.1527 -18.1467 -18.1387 -18.1367 -18.1304 -18.1237 -18.1220 -18.1171
   -18.1170 -18.1127 -18.1097 -18.0772 -18.0697 -18.0554 -18.0441 -18.0379
    -9.4055  -9.3543  -9.2914  -9.2693  -9.2160  -9.1964  -9.1156  -9.0425
    -9.0075  -8.9645  -8.9435  -8.9343  -8.9005  -8.8744  -8.8639  -8.8412
    -8.8192  -8.7835  -8.7582  -8.6869  -8.6513  -8.6427  -8.5868  -8.5587
    -5.2216  -5.2137  -5.2130  -5.1773  -5.1745  -5.1663  -5.1600  -5.1579
    -5.1564  -5.1533  -5.1474  -5.1457  -5.1439  -5.1387  -5.1364  -5.1320
    -5.1258  -5.1251  -5.1166  -5.1131  -5.0987  -5.0568  -5.0341  -5.0335
    -4.1896  -3.9652  -3.9482  -3.7277  -3.6619  -3.4452  -3.3865  -3.1688
    -0.6839  -0.6335  -0.5996  -0.5385  -0.3316  -0.2371  -0.1840  -0.1533
    -0.0717  -0.0507   0.0105   0.1421   0.3026   0.4019   0.4460   0.4786
     0.5039   0.5522   0.5704   0.6139   0.6297   0.6613   0.7151   0.7428
     0.7637   0.8500   0.9206   0.9349   0.9727   1.0171   1.0403   1.1063
     1.1458   1.1577   1.2018   1.2160   1.2392   1.2844   1.3204   1.3614
     1.4137   1.4299   1.4961   1.5313   1.5449   1.5619   1.5893   1.6164
     1.6265   1.6546   1.6635   1.7028   1.7158   1.7382   1.7579   1.7782
     1.7966   1.8197   1.8691   1.8832   1.9092   1.9171   1.9483   1.9579
     1.9870   2.0212   2.0747   2.1495   2.2313   2.3562   2.4988   2.5427

          k =-0.3750-0.3750-0.1250 (132616 PWs)   bands (ev):

   -18.4432 -18.4052 -18.3812 -18.3751 -18.3695 -18.3610 -18.3445 -18.2838
   -18.2812 -18.2705 -18.2677 -18.2645 -18.2517 -18.2375 -18.2322 -18.2248
   -18.2216 -18.2173 -18.2107 -18.2095 -18.2005 -18.1999 -18.1982 -18.1853
   -18.1841 -18.1824 -18.1822 -18.1807 -18.1790 -18.1785 -18.1677 -18.1591
   -18.1527 -18.1467 -18.1387 -18.1367 -18.1304 -18.1237 -18.1220 -18.1171
   -18.1170 -18.1127 -18.1097 -18.0772 -18.0697 -18.0554 -18.0441 -18.0379
    -9.4050  -9.3564  -9.2872  -9.2707  -9.2159  -9.1987  -9.1149  -9.0418
    -9.0082  -8.9629  -8.9469  -8.9345  -8.8933  -8.8764  -8.8683  -8.8430
    -8.8137  -8.7873  -8.7563  -8.6878  -8.6499  -8.6436  -8.5867  -8.5589
    -5.2215  -5.2137  -5.2130  -5.1777  -5.1745  -5.1664  -5.1591  -5.1585
    -5.1556  -5.1540  -5.1477  -5.1453  -5.1442  -5.1386  -5.1364  -5.1316
    -5.1265  -5.1248  -5.1165  -5.1130  -5.0987  -5.0568  -5.0340  -5.0335
    -4.1894  -3.9715  -3.9419  -3.7245  -3.6633  -3.4465  -3.3927  -3.1628
    -0.6715  -0.6458  -0.6040  -0.5371  -0.3436  -0.2606  -0.1909  -0.1399
    -0.0810  -0.0150   0.0284   0.1900   0.2834   0.4011   0.4422   0.4562
     0.4941   0.5239   0.5544   0.6129   0.6454   0.6722   0.7038   0.7501
     0.7900   0.8532   0.8915   0.9423   0.9844   1.0018   1.0483   1.1020
     1.1274   1.1772   1.1826   1.2219   1.2605   1.2886   1.3284   1.3703
     1.4091   1.4471   1.4812   1.4996   1.5408   1.5602   1.5883   1.6037
     1.6373   1.6618   1.6742   1.6908   1.7222   1.7433   1.7692   1.7887
     1.8089   1.8225   1.8480   1.8779   1.8910   1.9022   1.9193   1.9827
     2.0283   2.0385   2.0708   2.1390   2.2085   2.3767   2.4427   2.5921

          k = 0.3750 0.3750-0.1250 (132616 PWs)   bands (ev):

   -18.4432 -18.4052 -18.3812 -18.3751 -18.3695 -18.3610 -18.3445 -18.2838
   -18.2812 -18.2705 -18.2677 -18.2645 -18.2517 -18.2375 -18.2322 -18.2248
   -18.2216 -18.2173 -18.2107 -18.2095 -18.2005 -18.1999 -18.1982 -18.1853
   -18.1841 -18.1824 -18.1822 -18.1807 -18.1790 -18.1785 -18.1677 -18.1591
   -18.1527 -18.1467 -18.1387 -18.1367 -18.1304 -18.1237 -18.1220 -18.1171
   -18.1170 -18.1127 -18.1097 -18.0772 -18.0697 -18.0554 -18.0441 -18.0379
    -9.4045  -9.3562  -9.2949  -9.2623  -9.2120  -9.2040  -9.1164  -9.0405
    -9.0041  -8.9644  -8.9448  -8.9369  -8.9014  -8.8762  -8.8605  -8.8481
    -8.8116  -8.7859  -8.7562  -8.6876  -8.6514  -8.6428  -8.5867  -8.5589
    -5.2216  -5.2137  -5.2129  -5.1776  -5.1746  -5.1664  -5.1593  -5.1586
    -5.1560  -5.1532  -5.1474  -5.1457  -5.1439  -5.1390  -5.1363  -5.1316
    -5.1268  -5.1249  -5.1165  -5.1128  -5.0987  -5.0570  -5.0340  -5.0335
    -4.1874  -3.9747  -3.9429  -3.7298  -3.6557  -3.4451  -3.3905  -3.1667
    -0.6768  -0.6423  -0.5989  -0.5324  -0.3428  -0.2518  -0.2034  -0.1400
    -0.0965  -0.0178   0.0356   0.1761   0.2873   0.3966   0.4528   0.4639
     0.5060   0.5235   0.5740   0.6061   0.6389   0.6514   0.7087   0.7482
     0.7843   0.8570   0.9021   0.9573   0.9702   1.0024   1.0449   1.1070
     1.1231   1.1747   1.1979   1.2325   1.2436   1.2933   1.3220   1.3607
     1.4024   1.4305   1.4908   1.5195   1.5230   1.5709   1.6045   1.6140
     1.6373   1.6500   1.6670   1.6933   1.7102   1.7339   1.7505   1.7863
     1.8049   1.8189   1.8525   1.8812   1.9010   1.9102   1.9337   1.9909
     2.0118   2.0377   2.0693   2.1471   2.2433   2.3735   2.4450   2.5548

          k =-0.3750 0.3750 0.1250 (132616 PWs)   bands (ev):

   -18.4432 -18.4052 -18.3812 -18.3751 -18.3695 -18.3610 -18.3445 -18.2838
   -18.2812 -18.2705 -18.2677 -18.2645 -18.2517 -18.2375 -18.2322 -18.2248
   -18.2216 -18.2173 -18.2107 -18.2095 -18.2005 -18.1999 -18.1982 -18.1853
   -18.1841 -18.1824 -18.1822 -18.1807 -18.1790 -18.1785 -18.1677 -18.1591
   -18.1527 -18.1467 -18.1387 -18.1367 -18.1304 -18.1237 -18.1220 -18.1171
   -18.1170 -18.1127 -18.1097 -18.0772 -18.0697 -18.0554 -18.0441 -18.0379
    -9.4056  -9.3541  -9.2929  -9.2670  -9.2165  -9.1974  -9.1162  -9.0405
    -9.0046  -8.9632  -8.9492  -8.9387  -8.8989  -8.8747  -8.8577  -8.8429
    -8.8190  -8.7845  -8.7580  -8.6874  -8.6501  -8.6437  -8.5867  -8.5587
    -5.2216  -5.2137  -5.2129  -5.1773  -5.1747  -5.1666  -5.1598  -5.1581
    -5.1554  -5.1540  -5.1477  -5.1451  -5.1441  -5.1388  -5.1367  -5.1318
    -5.1259  -5.1249  -5.1166  -5.1129  -5.0989  -5.0568  -5.0340  -5.0335
    -4.1896  -3.9668  -3.9465  -3.7272  -3.6618  -3.4473  -3.3861  -3.1677
    -0.6747  -0.6387  -0.5969  -0.5511  -0.3350  -0.2453  -0.1820  -0.1465
    -0.0676  -0.0369   0.0112   0.1489   0.3043   0.3895   0.4466   0.4645
     0.5095   0.5508   0.5724   0.6093   0.6291   0.6471   0.7177   0.7550
     0.7805   0.8425   0.8967   0.9390   0.9990   1.0059   1.0369   1.0916
     1.1463   1.1712   1.1984   1.2294   1.2504   1.2988   1.3053   1.3733
     1.4185   1.4528   1.4656   1.4854   1.5153   1.5628   1.6003   1.6135
     1.6405   1.6619   1.6678   1.6915   1.7164   1.7337   1.7591   1.7759
     1.7987   1.8175   1.8639   1.8954   1.9091   1.9329   1.9422   1.9776
     2.0031   2.0495   2.0754   2.1200   2.2384   2.3398   2.4905   2.5384

          k =-0.3750-0.3750 0.3750 (132612 PWs)   bands (ev):

   -18.4432 -18.4052 -18.3812 -18.3751 -18.3695 -18.3610 -18.3445 -18.2838
   -18.2812 -18.2705 -18.2677 -18.2645 -18.2517 -18.2375 -18.2322 -18.2248
   -18.2216 -18.2173 -18.2107 -18.2095 -18.2005 -18.1999 -18.1982 -18.1853
   -18.1841 -18.1824 -18.1822 -18.1807 -18.1790 -18.1785 -18.1677 -18.1591
   -18.1527 -18.1467 -18.1387 -18.1367 -18.1304 -18.1237 -18.1220 -18.1171
   -18.1170 -18.1127 -18.1097 -18.0772 -18.0697 -18.0554 -18.0441 -18.0379
    -9.3847  -9.3376  -9.3116  -9.2590  -9.2361  -9.2159  -9.1378  -9.0629
    -8.9800  -8.9594  -8.9511  -8.9277  -8.8847  -8.8685  -8.8486  -8.8368
    -8.8115  -8.7917  -8.7602  -8.6907  -8.6597  -8.6421  -8.5904  -8.5595
    -5.2217  -5.2136  -5.2131  -5.1772  -5.1744  -5.1667  -5.1598  -5.1589
    -5.1561  -5.1528  -5.1480  -5.1455  -5.1434  -5.1401  -5.1361  -5.1314
    -5.1268  -5.1246  -5.1163  -5.1124  -5.0985  -5.0570  -5.0339  -5.0330
    -4.0582  -3.9062  -3.8318  -3.7633  -3.6695  -3.6104  -3.5213  -3.3522
    -0.4242  -0.3819  -0.3362  -0.3088  -0.2664  -0.1925  -0.1653  -0.1454
    -0.0672  -0.0066   0.0582   0.2306   0.2651   0.3139   0.3678   0.4200
     0.4601   0.4972   0.5052   0.5483   0.5726   0.6153   0.6510   0.6650
     0.8618   0.8851   0.9031   0.9440   0.9682   0.9863   1.0217   1.0360
     1.0696   1.0926   1.1157   1.1532   1.1717   1.2043   1.2551   1.2846
     1.3970   1.4239   1.5155   1.5494   1.5606   1.5827   1.6123   1.6551
     1.6731   1.6864   1.7031   1.7204   1.7250   1.7611   1.7740   1.7931
     1.8176   1.8417   1.8629   1.8774   1.8908   1.9257   1.9343   1.9434
     1.9614   1.9975   2.0327   2.0502   2.0908   2.1955   2.2152   2.2529

          k =-0.3750 0.3750-0.3750 (132612 PWs)   bands (ev):

   -18.4432 -18.4052 -18.3812 -18.3751 -18.3695 -18.3610 -18.3445 -18.2838
   -18.2812 -18.2705 -18.2677 -18.2645 -18.2517 -18.2375 -18.2322 -18.2248
   -18.2216 -18.2173 -18.2107 -18.2095 -18.2005 -18.1999 -18.1982 -18.1853
   -18.1841 -18.1824 -18.1822 -18.1807 -18.1790 -18.1785 -18.1677 -18.1591
   -18.1527 -18.1467 -18.1387 -18.1367 -18.1304 -18.1237 -18.1220 -18.1171
   -18.1170 -18.1127 -18.1097 -18.0772 -18.0697 -18.0554 -18.0441 -18.0379
    -9.3859  -9.3360  -9.3089  -9.2621  -9.2419  -9.2098  -9.1363  -9.0653
    -8.9862  -8.9555  -8.9472  -8.9269  -8.8832  -8.8709  -8.8477  -8.8329
    -8.8174  -8.7914  -8.7611  -8.6906  -8.6581  -8.6426  -8.5907  -8.5593
    -5.2217  -5.2136  -5.2131  -5.1772  -5.1744  -5.1664  -5.1601  -5.1589
    -5.1559  -5.1535  -5.1481  -5.1453  -5.1435  -5.1399  -5.1361  -5.1318
    -5.1260  -5.1245  -5.1164  -5.1127  -5.0986  -5.0568  -5.0340  -5.0330
    -4.0636  -3.8865  -3.8363  -3.7829  -3.6543  -3.6088  -3.5287  -3.3518
    -0.4479  -0.3758  -0.3335  -0.2647  -0.2554  -0.2277  -0.1429  -0.0989
    -0.0850  -0.0655   0.0550   0.2132   0.2757   0.2980   0.3546   0.4256
     0.4774   0.5176   0.5206   0.5381   0.5715   0.6176   0.6279   0.6851
     0.8459   0.8826   0.9089   0.9492   0.9783   0.9940   1.0122   1.0484
     1.0655   1.1002   1.1198   1.1465   1.1633   1.1861   1.2477   1.2883
     1.4025   1.4338   1.5229   1.5448   1.5555   1.5915   1.6151   1.6499
     1.6690   1.6869   1.7046   1.7214   1.7397   1.7551   1.7821   1.8035
     1.8283   1.8445   1.8545   1.8721   1.8936   1.9107   1.9189   1.9530
     1.9552   1.9615   2.0148   2.0610   2.1104   2.1667   2.2378   2.2750

          k = 0.3750-0.3750-0.3750 (132612 PWs)   bands (ev):

   -18.4432 -18.4052 -18.3812 -18.3751 -18.3695 -18.3610 -18.3445 -18.2838
   -18.2812 -18.2705 -18.2677 -18.2645 -18.2517 -18.2375 -18.2322 -18.2248
   -18.2216 -18.2173 -18.2107 -18.2095 -18.2005 -18.1999 -18.1982 -18.1853
   -18.1841 -18.1824 -18.1822 -18.1807 -18.1790 -18.1785 -18.1677 -18.1591
   -18.1527 -18.1467 -18.1387 -18.1367 -18.1304 -18.1237 -18.1220 -18.1171
   -18.1170 -18.1127 -18.1097 -18.0772 -18.0697 -18.0554 -18.0441 -18.0379
    -9.3861  -9.3352  -9.3103  -9.2615  -9.2390  -9.2134  -9.1366  -9.0636
    -8.9803  -8.9598  -8.9513  -8.9288  -8.8832  -8.8685  -8.8469  -8.8305
    -8.8177  -8.7926  -8.7611  -8.6913  -8.6573  -8.6433  -8.5905  -8.5593
    -5.2217  -5.2137  -5.2131  -5.1771  -5.1746  -5.1667  -5.1603  -5.1579
    -5.1563  -5.1536  -5.1482  -5.1450  -5.1436  -5.1401  -5.1363  -5.1316
    -5.1261  -5.1244  -5.1164  -5.1125  -5.0987  -5.0568  -5.0339  -5.0331
    -4.0633  -3.8905  -3.8284  -3.7886  -3.6467  -3.6101  -3.5368  -3.3484
    -0.4220  -0.3818  -0.3504  -0.3113  -0.2762  -0.1918  -0.1335  -0.1040
    -0.0717  -0.0137   0.0251   0.2136   0.2729   0.3105   0.3757   0.4032
     0.4643   0.4873   0.5151   0.5467   0.5775   0.5952   0.6527   0.7011
     0.8470   0.8785   0.9084   0.9409   0.9576   0.9835   1.0302   1.0492
     1.0728   1.0879   1.1245   1.1547   1.1849   1.2033   1.2358   1.2848
     1.3982   1.4575   1.5017   1.5178   1.5603   1.5780   1.6155   1.6328
     1.6667   1.6951   1.7077   1.7248   1.7421   1.7623   1.7782   1.7924
     1.8312   1.8369   1.8668   1.8835   1.8933   1.9131   1.9368   1.9558
     1.9689   1.9830   2.0227   2.0551   2.1174   2.1557   2.1883   2.2838

     highest occupied level (ev):     3.2125

!    total energy              =   -2256.31875253 Ry
     estimated scf accuracy    <          3.0E-11 Ry

     The total energy is the sum of the following terms:
     one-electron contribution =    -998.56086323 Ry
     hartree contribution      =     627.45664858 Ry
     xc contribution           =    -647.61198048 Ry
     ewald contribution        =   -1237.60255740 Ry

     convergence has been achieved in  15 iterations

     Forces acting on atoms (cartesian axes, Ry/au):

     atom    1 type  1   force =    -0.00417255   -0.00069314    0.00234615
     atom    2 type  2   force =    -0.00021145   -0.00037723   -0.02499370
     atom    3 type  3   force =    -0.00594818    0.00250736    0.00174766
     atom    4 type  3   force =     0.00298221   -0.00157540    0.02795880
     atom    5 type  3   force =     0.00140805   -0.01127859    0.00109522
     atom    6 type  1   force =    -0.00113918    0.00004105   -0.00054219
     atom    7 type  2   force =     0.00643743   -0.00930179   -0.01374634
     atom    8 type  3   force =    -0.00037062    0.00054238   -0.00399700
     atom    9 type  3   force =     0.00643630   -0.00213193    0.01928326
     atom   10 type  3   force =     0.00087464    0.01258556   -0.00376342
     atom   11 type  1   force =     0.00079953   -0.00182815    0.00189407
     atom   12 type  2   force =    -0.00061045   -0.00030959   -0.01013671
     atom   13 type  3   force =    -0.00011535    0.00154477    0.00503685
     atom   14 type  3   force =     0.00518995   -0.00125800   -0.00038412
     atom   15 type  3   force =     0.00003596    0.00249938   -0.00270494
     atom   16 type  1   force =     0.00163068   -0.00121218   -0.00300287
     atom   17 type  2   force =     0.00036463    0.00407736    0.00727671
     atom   18 type  3   force =     0.01085281   -0.00388365   -0.00210772
     atom   19 type  3   force =    -0.00356208    0.00613496   -0.00599252
     atom   20 type  3   force =     0.00024464   -0.00633520    0.00490075
     atom   21 type  1   force =     0.00154029    0.00120983    0.00334838
     atom   22 type  2   force =    -0.00234547   -0.00776931    0.02041320
     atom   23 type  3   force =     0.01354416    0.00082127   -0.00508065
     atom   24 type  3   force =    -0.00088642    0.00547657    0.00606874
     atom   25 type  3   force =     0.00341040   -0.01266634   -0.00447523
     atom   26 type  1   force =     0.00005760    0.00118804   -0.00176212
     atom   27 type  2   force =    -0.00594639   -0.01418959   -0.00134638
     atom   28 type  3   force =    -0.01602585   -0.00004108   -0.00709675
     atom   29 type  3   force =     0.00521100    0.00206482   -0.01656359
     atom   30 type  3   force =     0.00105786    0.00123700   -0.00122191
     atom   31 type  1   force =    -0.00002161    0.00838403   -0.00226176
     atom   32 type  2   force =    -0.00576648    0.01032933   -0.01778400
     atom   33 type  3   force =     0.00457688    0.00014728    0.00184379
     atom   34 type  3   force =    -0.00224151   -0.00416499    0.03195642
     atom   35 type  3   force =    -0.00264353    0.00966673   -0.00157637
     atom   36 type  1   force =     0.00207133    0.00386443   -0.00195457
     atom   37 type  2   force =    -0.00938383    0.01265276    0.00377697
     atom   38 type  3   force =    -0.01188331   -0.00264546    0.00488658
     atom   39 type  3   force =    -0.00151115   -0.00529463   -0.01049167
     atom   40 type  3   force =     0.00605904   -0.00001862   -0.00084704

     Total force =     0.085201     Total SCF correction =     0.000031


     Computing stress (Cartesian axis) and pressure

          total   stress  (Ry/bohr**3)                   (kbar)     P=       -5.79
  -0.00004842   0.00000168   0.00000311           -7.12        0.25        0.46
   0.00000168  -0.00004975  -0.00000216            0.25       -7.32       -0.32
   0.00000311  -0.00000216  -0.00001989            0.46       -0.32       -2.93

 
     init_run     :     20.14s CPU     17.45s WALL (       1 calls)
     electrons    :    201.41s CPU    213.07s WALL (       1 calls)
     forces       :      8.85s CPU      3.95s WALL (       1 calls)
     stress       :     31.69s CPU     31.21s WALL (       1 calls)

     Called by init_run:
     wfcinit      :     12.26s CPU     14.39s WALL (       1 calls)
                                       14.39s GPU  (       1 calls)
     potinit      :      4.54s CPU      1.41s WALL (       1 calls)
     hinit0       :      2.77s CPU      0.97s WALL (       1 calls)

     Called by electrons:
     c_bands      :    120.01s CPU    170.46s WALL (      16 calls)
     sum_band     :     21.81s CPU     21.19s WALL (      16 calls)
                                       21.19s GPU  (      16 calls)
     v_of_rho     :     55.15s CPU     16.67s WALL (      16 calls)
     mix_rho      :      6.49s CPU      5.04s WALL (      16 calls)

     Called by c_bands:
     init_us_2    :      2.33s CPU      3.03s WALL (     280 calls)
                                        3.03s GPU  (     280 calls)
     cegterg      :     80.65s CPU    128.33s WALL (     128 calls)

     Called by *egterg:
     cdiaghg      :     13.77s CPU     26.40s WALL (     656 calls)
                                       26.37s GPU  (     656 calls)
     h_psi        :     54.89s CPU     73.54s WALL (     672 calls)
                                       73.09s GPU  (     672 calls)
     g_psi        :      0.00s CPU      0.36s WALL (     536 calls)
                                        0.35s GPU  (     536 calls)

     Called by h_psi:
     h_psi:calbec :      0.30s CPU      9.94s WALL (     672 calls)
                                        9.93s GPU  (     672 calls)
     vloc_psi     :     39.75s CPU     53.58s WALL (     672 calls)
                                       52.67s GPU  (     672 calls)
     add_vuspsi   :      0.34s CPU      9.93s WALL (     672 calls)
                                        9.92s GPU  (     672 calls)

     General routines
     calbec       :      0.30s CPU      0.39s WALL (     712 calls)
     fft          :     25.71s CPU      6.55s WALL (     185 calls)
                                        0.00s GPU  (       6 calls)
     ffts         :      2.56s CPU      0.67s WALL (      16 calls)
     fftw         :      0.65s CPU     62.14s WALL (   10404 calls)
                                       46.46s GPU  (   10404 calls)
 
     Parallel routines
 
     PWSCF        :   4m22.73s CPU   4m26.41s WALL

 
   This run was terminated on:   0:33: 8  23Apr2021            

=------------------------------------------------------------------------------=
   JOB DONE.
=------------------------------------------------------------------------------=
