
     Program PWSCF v.6.7MaX starts on 22Apr2021 at 20: 0:33 

     This program is part of the open-source Quantum ESPRESSO suite
     for quantum simulation of materials; please cite
         "P. Giannozzi et al., J. Phys.:Condens. Matter 21 395502 (2009);
         "P. Giannozzi et al., J. Phys.:Condens. Matter 29 465901 (2017);
         "P. Giannozzi et al., J. Chem. Phys. 152 154105 (2020);
          URL http://www.quantum-espresso.org", 
     in publications or presentations arising from this work. More details at
     http://www.quantum-espresso.org/quote

     Parallel version (MPI & OpenMP), running on      16 processor cores
     Number of MPI processes:                 4
     Threads/MPI process:                     4

     MPI processes distributed on     1 nodes
     K-points division:     npool     =       4
     Reading input from ESP_52.pwi
Warning: card &CELL ignored
Warning: card / ignored

     Current dimensions of program PWSCF are:
     Max number of different atomic species (ntypx) = 10
     Max number of k-points (npk) =  40000
     Max angular momentum in pseudopotentials (lmaxx) =  3
     Message from routine read_pp_mesh:
     mesh size missing, using the one in header
     Message from routine read_pp_mesh:
     mesh size missing, using the one in header
     Message from routine read_pp_mesh:
     mesh size missing, using the one in header

     Subspace diagonalization in iterative solution of the eigenvalue problem:
     a serial algorithm will be used

 
     G-vector sticks info
     --------------------
     sticks:   dense  smooth     PW     G-vecs:    dense   smooth      PW
     Sum       12589   12589   3289              1061107  1061107  140905
 
     Using Slab Decomposition
 


     bravais-lattice index     =            0
     lattice parameter (alat)  =      23.7585  a.u.
     unit-cell volume          =   13410.8736 (a.u.)^3
     number of atoms/cell      =           40
     number of atomic types    =            3
     number of electrons       =       352.00
     number of Kohn-Sham states=          176
     kinetic-energy cutoff     =      70.0000  Ry
     charge density cutoff     =     280.0000  Ry
     scf convergence threshold =      1.0E-10
     mixing beta               =       0.7000
     number of iterations used =            8  plain     mixing
     Exchange-correlation= PBESOL
                           (   1   4  10   8   0   0   0)

     GPU acceleration is ACTIVE.


     celldm(1)=  23.758500  celldm(2)=   0.000000  celldm(3)=   0.000000
     celldm(4)=   0.000000  celldm(5)=   0.000000  celldm(6)=   0.000000

     crystal axes: (cart. coord. in units of alat)
               a(1) = (   1.000000   0.000000   0.000000 )  
               a(2) = (   0.000000   1.000000   0.000000 )  
               a(3) = (   0.000000   0.000000   1.000000 )  

     reciprocal axes: (cart. coord. in units 2 pi/alat)
               b(1) = (  1.000000  0.000000  0.000000 )  
               b(2) = (  0.000000  1.000000  0.000000 )  
               b(3) = (  0.000000  0.000000  1.000000 )  


     PseudoPot. # 1 for Cs read from file:
     /m100/home/userexternal/lmonacel/espresso/pseudo/Cs-nc-pbesol.upf
     MD5 check sum: 9d2f2206a14dc5b3b3f3fbfae186bed4
     Pseudo is Norm-conserving + core correction, Zval =  9.0
     Generated using ONCVPSP code by D. R. Hamann
     Using radial grid of 2384 points,  8 beta functions with: 
                l(1) =   0
                l(2) =   0
                l(3) =   1
                l(4) =   1
                l(5) =   2
                l(6) =   2
                l(7) =   3
                l(8) =   3

     PseudoPot. # 2 for Sn read from file:
     /m100/home/userexternal/lmonacel/espresso/pseudo/Sn-nc-pbesol.upf
     MD5 check sum: c2995d571af40102bfea7461443d92cf
     Pseudo is Norm-conserving + core correction, Zval = 14.0
     Generated using ONCVPSP code by D. R. Hamann
     Using radial grid of 1628 points,  6 beta functions with: 
                l(1) =   0
                l(2) =   0
                l(3) =   1
                l(4) =   1
                l(5) =   2
                l(6) =   2

     PseudoPot. # 3 for I  read from file:
     /m100/home/userexternal/lmonacel/espresso/pseudo/I-nc-pbesol.upf
     MD5 check sum: 80ed5ceb2eb9c553cfb6760a299d9c5b
     Pseudo is Norm-conserving + core correction, Zval =  7.0
     Generated using ONCVPSP code by D. R. Hamann
     Using radial grid of 1182 points,  6 beta functions with: 
                l(1) =   0
                l(2) =   0
                l(3) =   1
                l(4) =   1
                l(5) =   2
                l(6) =   2

     atomic species   valence    mass     pseudopotential
        Cs             9.00   132.90545     Cs( 1.00)
        Sn            14.00   118.71000     Sn( 1.00)
        I              7.00   126.90447     I ( 1.00)

     No symmetry found



   Cartesian axes

     site n.     atom                  positions (alat units)
         1           Cs  tau(   1) = (   0.2310311   0.2608275   0.2609052  )
         2           Sn  tau(   2) = (  -0.0099429   0.0122487   0.0003846  )
         3           I   tau(   3) = (   0.2491169   0.0048898  -0.0062522  )
         4           I   tau(   4) = (   0.0112981   0.0451188   0.2551984  )
         5           I   tau(   5) = (   0.0481992   0.2668013  -0.0083393  )
         6           Cs  tau(   6) = (   0.2747615   0.2534596   0.7619441  )
         7           Sn  tau(   7) = (  -0.0126634   0.0170531   0.5006481  )
         8           I   tau(   8) = (   0.2547368  -0.0002787   0.5165589  )
         9           I   tau(   9) = (  -0.0362211  -0.0016472   0.7494557  )
        10           I   tau(  10) = (  -0.0179471   0.2579808   0.4876014  )
        11           Cs  tau(  11) = (   0.2229908   0.7521028   0.2531836  )
        12           Sn  tau(  12) = (  -0.0007545   0.4970222   0.0115089  )
        13           I   tau(  13) = (   0.2510218   0.5202444   0.0258599  )
        14           I   tau(  14) = (  -0.0132164   0.4829246   0.2394471  )
        15           I   tau(  15) = (   0.0328453   0.7568966  -0.0195208  )
        16           Cs  tau(  16) = (   0.2216705   0.7373433   0.7173020  )
        17           Sn  tau(  17) = (  -0.0215783   0.5128973   0.4929826  )
        18           I   tau(  18) = (   0.2393062   0.4927935   0.4906571  )
        19           I   tau(  19) = (   0.0180243   0.5022881   0.7339058  )
        20           I   tau(  20) = (   0.0065462   0.7558882   0.4643144  )
        21           Cs  tau(  21) = (   0.7319711   0.2146699   0.2419795  )
        22           Sn  tau(  22) = (   0.5016813   0.0031799   0.0048499  )
        23           I   tau(  23) = (   0.7588351   0.0332188   0.0241835  )
        24           I   tau(  24) = (   0.4981584   0.0013537   0.2486966  )
        25           I   tau(  25) = (   0.5074411   0.2565440  -0.0025554  )
        26           Cs  tau(  26) = (   0.7175813   0.2987855   0.7530462  )
        27           Sn  tau(  27) = (   0.5064698  -0.0288301   0.5083432  )
        28           I   tau(  28) = (   0.7510901   0.0195987   0.5115834  )
        29           I   tau(  29) = (   0.4925829  -0.0099619   0.7497894  )
        30           I   tau(  30) = (   0.5030726   0.2403560   0.5176070  )
        31           Cs  tau(  31) = (   0.7431764   0.7308417   0.2530224  )
        32           Sn  tau(  32) = (   0.4984955   0.4925940   0.0007731  )
        33           I   tau(  33) = (   0.7510772   0.4930012  -0.0201200  )
        34           I   tau(  34) = (   0.5056611   0.4768329   0.2542873  )
        35           I   tau(  35) = (   0.5452736   0.7460501   0.0162501  )
        36           Cs  tau(  36) = (   0.7924211   0.7317752   0.7754686  )
        37           Sn  tau(  37) = (   0.4879462   0.4652980   0.4951881  )
        38           I   tau(  38) = (   0.7397162   0.4833758   0.5064973  )
        39           I   tau(  39) = (   0.5051330   0.4881739   0.7628462  )
        40           I   tau(  40) = (   0.5127850   0.7354002   0.4706692  )

     number of k points=    32
                       cart. coord. in units 2pi/alat
        k(    1) = (   0.1250000   0.1250000   0.1250000), wk =   0.0625000
        k(    2) = (   0.1250000   0.1250000   0.3750000), wk =   0.0625000
        k(    3) = (   0.1250000   0.3750000   0.3750000), wk =   0.0625000
        k(    4) = (   0.3750000   0.3750000   0.3750000), wk =   0.0625000
        k(    5) = (  -0.1250000  -0.1250000   0.1250000), wk =   0.0625000
        k(    6) = (  -0.1250000   0.1250000  -0.1250000), wk =   0.0625000
        k(    7) = (   0.1250000  -0.1250000  -0.1250000), wk =   0.0625000
        k(    8) = (  -0.1250000  -0.1250000   0.3750000), wk =   0.0625000
        k(    9) = (  -0.1250000   0.1250000  -0.3750000), wk =   0.0625000
        k(   10) = (   0.1250000  -0.1250000  -0.3750000), wk =   0.0625000
        k(   11) = (   0.3750000  -0.1250000   0.1250000), wk =   0.0625000
        k(   12) = (  -0.3750000  -0.1250000  -0.1250000), wk =   0.0625000
        k(   13) = (   0.3750000   0.1250000  -0.1250000), wk =   0.0625000
        k(   14) = (  -0.3750000   0.1250000   0.1250000), wk =   0.0625000
        k(   15) = (  -0.1250000   0.3750000   0.1250000), wk =   0.0625000
        k(   16) = (  -0.1250000  -0.3750000  -0.1250000), wk =   0.0625000
        k(   17) = (   0.1250000   0.3750000  -0.1250000), wk =   0.0625000
        k(   18) = (   0.1250000  -0.3750000   0.1250000), wk =   0.0625000
        k(   19) = (  -0.1250000  -0.3750000   0.3750000), wk =   0.0625000
        k(   20) = (  -0.1250000   0.3750000  -0.3750000), wk =   0.0625000
        k(   21) = (   0.1250000  -0.3750000  -0.3750000), wk =   0.0625000
        k(   22) = (   0.3750000   0.1250000  -0.3750000), wk =   0.0625000
        k(   23) = (  -0.3750000  -0.1250000  -0.3750000), wk =   0.0625000
        k(   24) = (   0.3750000  -0.1250000   0.3750000), wk =   0.0625000
        k(   25) = (  -0.3750000   0.1250000   0.3750000), wk =   0.0625000
        k(   26) = (   0.3750000  -0.3750000   0.1250000), wk =   0.0625000
        k(   27) = (  -0.3750000  -0.3750000  -0.1250000), wk =   0.0625000
        k(   28) = (   0.3750000   0.3750000  -0.1250000), wk =   0.0625000
        k(   29) = (  -0.3750000   0.3750000   0.1250000), wk =   0.0625000
        k(   30) = (  -0.3750000  -0.3750000   0.3750000), wk =   0.0625000
        k(   31) = (  -0.3750000   0.3750000  -0.3750000), wk =   0.0625000
        k(   32) = (   0.3750000  -0.3750000  -0.3750000), wk =   0.0625000

     Dense  grid:  1061107 G-vectors     FFT dimensions: ( 128, 128, 128)

     Estimated max dynamical RAM per process >       6.82 GB

     Estimated total dynamical RAM >      27.27 GB

     Initial potential from superposition of free atoms

     starting charge  351.69472, renormalised to  352.00000
     Starting wfcs are  208 randomized atomic wfcs

     total cpu time spent up to now is       17.9 secs

     Self-consistent Calculation

     iteration #  1     ecut=    70.00 Ry     beta= 0.70
     Davidson diagonalization with overlap
     ethr =  1.00E-02,  avg # of iterations =  2.0

     Threshold (ethr) on eigenvalues was too large:
     Diagonalizing with lowered threshold

     Davidson diagonalization with overlap
     ethr =  2.14E-04,  avg # of iterations =  4.0

     total cpu time spent up to now is       38.8 secs

     total energy              =   -2256.04017948 Ry
     estimated scf accuracy    <       0.65309755 Ry

     iteration #  2     ecut=    70.00 Ry     beta= 0.70
     Davidson diagonalization with overlap
     ethr =  1.86E-04,  avg # of iterations =  3.3

     total cpu time spent up to now is       51.7 secs

     total energy              =   -2256.24386217 Ry
     estimated scf accuracy    <       0.28697349 Ry

     iteration #  3     ecut=    70.00 Ry     beta= 0.70
     Davidson diagonalization with overlap
     ethr =  8.15E-05,  avg # of iterations =  2.6

     total cpu time spent up to now is       63.6 secs

     total energy              =   -2256.29812431 Ry
     estimated scf accuracy    <       0.01950737 Ry

     iteration #  4     ecut=    70.00 Ry     beta= 0.70
     Davidson diagonalization with overlap
     ethr =  5.54E-06,  avg # of iterations =  4.0

     total cpu time spent up to now is       76.9 secs

     total energy              =   -2256.30514553 Ry
     estimated scf accuracy    <       0.00685297 Ry

     iteration #  5     ecut=    70.00 Ry     beta= 0.70
     Davidson diagonalization with overlap
     ethr =  1.95E-06,  avg # of iterations =  3.3

     total cpu time spent up to now is       89.1 secs

     total energy              =   -2256.30647474 Ry
     estimated scf accuracy    <       0.00107119 Ry

     iteration #  6     ecut=    70.00 Ry     beta= 0.70
     Davidson diagonalization with overlap
     ethr =  3.04E-07,  avg # of iterations =  3.3

     total cpu time spent up to now is      101.6 secs

     total energy              =   -2256.30665103 Ry
     estimated scf accuracy    <       0.00015284 Ry

     iteration #  7     ecut=    70.00 Ry     beta= 0.70
     Davidson diagonalization with overlap
     ethr =  4.34E-08,  avg # of iterations =  4.7

     total cpu time spent up to now is      115.5 secs

     total energy              =   -2256.30670838 Ry
     estimated scf accuracy    <       0.00001437 Ry

     iteration #  8     ecut=    70.00 Ry     beta= 0.70
     Davidson diagonalization with overlap
     ethr =  4.08E-09,  avg # of iterations =  4.8

     total cpu time spent up to now is      129.9 secs

     total energy              =   -2256.30671527 Ry
     estimated scf accuracy    <       0.00000447 Ry

     iteration #  9     ecut=    70.00 Ry     beta= 0.70
     Davidson diagonalization with overlap
     ethr =  1.27E-09,  avg # of iterations =  4.0

     total cpu time spent up to now is      143.6 secs

     total energy              =   -2256.30671664 Ry
     estimated scf accuracy    <       0.00000062 Ry

     iteration # 10     ecut=    70.00 Ry     beta= 0.70
     Davidson diagonalization with overlap
     ethr =  1.78E-10,  avg # of iterations =  3.6

     total cpu time spent up to now is      157.8 secs

     total energy              =   -2256.30671689 Ry
     estimated scf accuracy    <       0.00000012 Ry

     iteration # 11     ecut=    70.00 Ry     beta= 0.70
     Davidson diagonalization with overlap
     ethr =  3.44E-11,  avg # of iterations =  5.8

     total cpu time spent up to now is      173.6 secs

     total energy              =   -2256.30671696 Ry
     estimated scf accuracy    <       0.00000003 Ry

     iteration # 12     ecut=    70.00 Ry     beta= 0.70
     Davidson diagonalization with overlap
     ethr =  8.48E-12,  avg # of iterations =  3.8

     total cpu time spent up to now is      187.6 secs

     total energy              =   -2256.30671697 Ry
     estimated scf accuracy    <          5.8E-09 Ry

     iteration # 13     ecut=    70.00 Ry     beta= 0.70
     Davidson diagonalization with overlap
     ethr =  1.65E-12,  avg # of iterations =  5.8

     total cpu time spent up to now is      203.0 secs

     total energy              =   -2256.30671697 Ry
     estimated scf accuracy    <          6.1E-10 Ry

     iteration # 14     ecut=    70.00 Ry     beta= 0.70
     Davidson diagonalization with overlap
     ethr =  1.73E-13,  avg # of iterations =  5.5

     total cpu time spent up to now is      219.6 secs

     total energy              =   -2256.30671697 Ry
     estimated scf accuracy    <          1.9E-10 Ry

     iteration # 15     ecut=    70.00 Ry     beta= 0.70
     Davidson diagonalization with overlap
     ethr =  1.00E-13,  avg # of iterations =  3.1

     total cpu time spent up to now is      231.4 secs

     End of self-consistent calculation

          k = 0.1250 0.1250 0.1250 (132670 PWs)   bands (ev):

   -18.4965 -18.4427 -18.3937 -18.3784 -18.3752 -18.2935 -18.2911 -18.2852
   -18.2759 -18.2751 -18.2749 -18.2723 -18.2699 -18.2681 -18.2658 -18.2639
   -18.2627 -18.2588 -18.2583 -18.2528 -18.2461 -18.2408 -18.2294 -18.2273
   -18.2165 -18.2131 -18.2067 -18.2040 -18.2019 -18.1979 -18.1952 -18.1934
   -18.1901 -18.1898 -18.1893 -18.1878 -18.1826 -18.1815 -18.1802 -18.1799
   -18.1799 -18.1773 -18.1767 -18.1738 -18.1702 -18.1700 -18.1655 -18.1630
    -9.4822  -9.3765  -9.3248  -9.2739  -9.1646  -9.1236  -9.0587  -9.0390
    -9.0141  -8.9687  -8.9414  -8.9224  -8.9019  -8.8698  -8.8407  -8.8127
    -8.7742  -8.7470  -8.7206  -8.7074  -8.6419  -8.5755  -8.5335  -8.5023
    -5.2719  -5.2645  -5.2495  -5.2246  -5.2143  -5.2079  -5.1734  -5.1563
    -5.1541  -5.1516  -5.1461  -5.1413  -5.1394  -5.1322  -5.1303  -5.0570
    -5.0494  -5.0389  -5.0368  -5.0324  -5.0280  -5.0175  -5.0080  -5.0048
    -4.4675  -3.9660  -3.9286  -3.8959  -3.4018  -3.3709  -3.3251  -2.7377
    -0.7629  -0.7025  -0.6654  -0.6303  -0.5943  -0.5665  -0.5111  -0.4758
    -0.4484  -0.3632  -0.2843  -0.1980   0.4124   0.4594   0.4714   0.5700
     0.6180   0.6758   0.7279   0.7813   0.8213   0.9133   0.9398   0.9664
     0.9959   1.0258   1.0521   1.0756   1.1095   1.1396   1.1601   1.1707
     1.2012   1.2264   1.2445   1.2703   1.2889   1.3193   1.3403   1.3584
     1.3964   1.4110   1.4427   1.4623   1.4812   1.4938   1.5168   1.5464
     1.5784   1.6026   1.6190   1.6366   1.6635   1.6930   1.7061   1.7346
     1.7723   1.8189   1.8464   1.9753   2.0097   2.0449   2.0866   2.0905
     2.1546   2.1739   2.2339   2.3214   2.6493   2.6893   2.7914   3.1183

          k = 0.1250 0.1250 0.3750 (132608 PWs)   bands (ev):

   -18.4965 -18.4427 -18.3937 -18.3784 -18.3752 -18.2935 -18.2911 -18.2852
   -18.2759 -18.2751 -18.2749 -18.2723 -18.2699 -18.2681 -18.2658 -18.2639
   -18.2627 -18.2588 -18.2583 -18.2528 -18.2461 -18.2408 -18.2294 -18.2272
   -18.2165 -18.2131 -18.2067 -18.2040 -18.2019 -18.1979 -18.1952 -18.1934
   -18.1901 -18.1898 -18.1893 -18.1878 -18.1826 -18.1815 -18.1802 -18.1799
   -18.1799 -18.1773 -18.1767 -18.1738 -18.1702 -18.1700 -18.1655 -18.1630
    -9.4645  -9.3869  -9.3338  -9.2583  -9.1935  -9.1448  -9.0477  -9.0344
    -9.0070  -8.9647  -8.9399  -8.9222  -8.8964  -8.8565  -8.8436  -8.8223
    -8.7683  -8.7496  -8.7223  -8.6886  -8.6576  -8.5720  -8.5306  -8.5120
    -5.2719  -5.2640  -5.2489  -5.2245  -5.2147  -5.2080  -5.1735  -5.1594
    -5.1534  -5.1514  -5.1460  -5.1409  -5.1377  -5.1324  -5.1300  -5.0565
    -5.0494  -5.0391  -5.0366  -5.0327  -5.0280  -5.0177  -5.0077  -5.0055
    -4.3396  -4.1107  -3.8123  -3.7833  -3.5734  -3.5426  -3.2184  -2.9708
    -0.7052  -0.6479  -0.6150  -0.5793  -0.5414  -0.4900  -0.4158  -0.3864
    -0.1836  -0.1068   0.0016   0.0898   0.3912   0.4344   0.4826   0.4869
     0.5261   0.5578   0.6315   0.6572   0.7029   0.7188   0.7745   0.8134
     0.8608   0.9060   0.9815   1.0117   1.0577   1.1256   1.1397   1.1626
     1.2003   1.2391   1.2535   1.2647   1.3108   1.3365   1.3545   1.3824
     1.4001   1.4184   1.4297   1.4702   1.4866   1.5153   1.5401   1.5693
     1.5940   1.6162   1.6269   1.6524   1.6908   1.7026   1.7354   1.7571
     1.7891   1.8316   1.8721   1.8850   1.9189   1.9603   2.0009   2.0344
     2.0913   2.1438   2.2390   2.3148   2.4255   2.4865   2.7304   2.8413

          k = 0.1250 0.3750 0.3750 (132616 PWs)   bands (ev):

   -18.4965 -18.4427 -18.3937 -18.3784 -18.3752 -18.2935 -18.2911 -18.2852
   -18.2759 -18.2751 -18.2749 -18.2723 -18.2699 -18.2681 -18.2658 -18.2639
   -18.2627 -18.2588 -18.2583 -18.2528 -18.2461 -18.2408 -18.2294 -18.2272
   -18.2165 -18.2131 -18.2067 -18.2040 -18.2019 -18.1979 -18.1952 -18.1934
   -18.1901 -18.1898 -18.1893 -18.1878 -18.1826 -18.1815 -18.1802 -18.1799
   -18.1799 -18.1773 -18.1767 -18.1738 -18.1702 -18.1700 -18.1655 -18.1630
    -9.4578  -9.3795  -9.3300  -9.2655  -9.2148  -9.1390  -9.0744  -9.0372
    -8.9968  -8.9616  -8.9453  -8.9284  -8.8736  -8.8499  -8.8387  -8.8249
    -8.7591  -8.7376  -8.7283  -8.6902  -8.6625  -8.5709  -8.5385  -8.5130
    -5.2718  -5.2640  -5.2489  -5.2246  -5.2145  -5.2079  -5.1734  -5.1592
    -5.1536  -5.1519  -5.1462  -5.1427  -5.1354  -5.1338  -5.1289  -5.0565
    -5.0496  -5.0391  -5.0365  -5.0326  -5.0279  -5.0178  -5.0077  -5.0055
    -4.2318  -4.0288  -3.9190  -3.7392  -3.6821  -3.4691  -3.3428  -3.1467
    -0.6807  -0.6159  -0.5949  -0.4804  -0.3696  -0.3046  -0.2060  -0.1744
    -0.0610   0.0221   0.0759   0.1438   0.3140   0.3930   0.4263   0.4907
     0.5077   0.5338   0.5728   0.6137   0.6567   0.6813   0.7064   0.7626
     0.7767   0.8723   0.8946   0.9534   0.9858   1.0096   1.0486   1.0992
     1.1643   1.1774   1.2039   1.2421   1.2823   1.2949   1.3088   1.3555
     1.3786   1.4219   1.4358   1.4912   1.5192   1.5379   1.5541   1.5799
     1.6190   1.6464   1.6738   1.6966   1.7464   1.7556   1.7611   1.7908
     1.8103   1.8441   1.8635   1.8882   1.9089   1.9407   1.9648   1.9805
     2.0167   2.0512   2.0915   2.1839   2.3452   2.4370   2.5576   2.6135

          k = 0.3750 0.3750 0.3750 (132612 PWs)   bands (ev):

   -18.4965 -18.4427 -18.3937 -18.3784 -18.3752 -18.2935 -18.2911 -18.2852
   -18.2758 -18.2752 -18.2749 -18.2723 -18.2699 -18.2681 -18.2658 -18.2639
   -18.2627 -18.2588 -18.2583 -18.2528 -18.2461 -18.2408 -18.2294 -18.2272
   -18.2165 -18.2131 -18.2067 -18.2040 -18.2019 -18.1979 -18.1952 -18.1935
   -18.1901 -18.1898 -18.1893 -18.1878 -18.1827 -18.1815 -18.1802 -18.1799
   -18.1799 -18.1773 -18.1767 -18.1738 -18.1702 -18.1700 -18.1655 -18.1630
    -9.4461  -9.3786  -9.3351  -9.2679  -9.2096  -9.1579  -9.0877  -9.0481
    -8.9927  -8.9545  -8.9480  -8.9165  -8.8772  -8.8450  -8.8319  -8.8108
    -8.7556  -8.7387  -8.7321  -8.6917  -8.6640  -8.5711  -8.5409  -8.5159
    -5.2719  -5.2641  -5.2488  -5.2247  -5.2145  -5.2079  -5.1732  -5.1591
    -5.1534  -5.1518  -5.1464  -5.1426  -5.1358  -5.1338  -5.1288  -5.0561
    -5.0496  -5.0384  -5.0371  -5.0334  -5.0276  -5.0176  -5.0079  -5.0052
    -4.1143  -3.9145  -3.8659  -3.7971  -3.6445  -3.6010  -3.5212  -3.3273
    -0.4293  -0.3872  -0.3399  -0.3182  -0.2503  -0.2108  -0.1724  -0.1080
    -0.0710   0.0112   0.1030   0.2213   0.3135   0.3362   0.3610   0.4275
     0.4636   0.4905   0.5411   0.5688   0.6055   0.6209   0.6646   0.6936
     0.8173   0.8461   0.9072   0.9383   0.9566   0.9660   1.0207   1.0546
     1.0782   1.1217   1.1512   1.1782   1.2039   1.2253   1.2614   1.2997
     1.3818   1.4129   1.4615   1.5119   1.5500   1.5646   1.6047   1.6259
     1.6488   1.6921   1.7020   1.7179   1.7475   1.7629   1.7804   1.8067
     1.8179   1.8337   1.8685   1.8761   1.8982   1.9143   1.9406   1.9634
     1.9973   2.0130   2.0465   2.0828   2.1299   2.1765   2.2792   2.3037

          k =-0.1250-0.1250 0.1250 (132670 PWs)   bands (ev):

   -18.4965 -18.4427 -18.3937 -18.3784 -18.3752 -18.2935 -18.2911 -18.2852
   -18.2759 -18.2751 -18.2749 -18.2723 -18.2699 -18.2681 -18.2658 -18.2639
   -18.2627 -18.2588 -18.2583 -18.2528 -18.2461 -18.2408 -18.2294 -18.2273
   -18.2165 -18.2131 -18.2067 -18.2040 -18.2019 -18.1979 -18.1952 -18.1934
   -18.1901 -18.1898 -18.1893 -18.1878 -18.1826 -18.1815 -18.1802 -18.1799
   -18.1799 -18.1773 -18.1767 -18.1738 -18.1702 -18.1700 -18.1655 -18.1630
    -9.4820  -9.3772  -9.3247  -9.2730  -9.1631  -9.1257  -9.0619  -9.0383
    -9.0121  -8.9661  -8.9461  -8.9232  -8.8947  -8.8695  -8.8413  -8.8154
    -8.7779  -8.7467  -8.7203  -8.7050  -8.6416  -8.5758  -8.5336  -8.5023
    -5.2719  -5.2643  -5.2496  -5.2246  -5.2144  -5.2078  -5.1734  -5.1563
    -5.1542  -5.1518  -5.1459  -5.1407  -5.1400  -5.1329  -5.1297  -5.0567
    -5.0494  -5.0389  -5.0368  -5.0325  -5.0277  -5.0174  -5.0081  -5.0050
    -4.4675  -3.9697  -3.9260  -3.8947  -3.4006  -3.3621  -3.3359  -2.7371
    -0.7393  -0.7142  -0.6875  -0.6392  -0.5810  -0.5548  -0.5108  -0.4914
    -0.4443  -0.3695  -0.2551  -0.2133   0.4145   0.4577   0.4723   0.5527
     0.6257   0.6750   0.7258   0.7763   0.8264   0.9058   0.9273   0.9861
     1.0017   1.0399   1.0525   1.0762   1.1209   1.1364   1.1515   1.1894
     1.2067   1.2250   1.2388   1.2576   1.2891   1.3257   1.3462   1.3616
     1.3757   1.4089   1.4371   1.4534   1.4702   1.5026   1.5263   1.5387
     1.5838   1.6057   1.6160   1.6412   1.6605   1.6769   1.6918   1.7420
     1.7777   1.8135   1.8519   1.9810   2.0107   2.0474   2.0848   2.0887
     2.1488   2.1788   2.2563   2.3209   2.6608   2.6964   2.7595   3.1232

          k =-0.1250 0.1250-0.1250 (132670 PWs)   bands (ev):

   -18.4965 -18.4427 -18.3937 -18.3784 -18.3752 -18.2935 -18.2911 -18.2852
   -18.2759 -18.2751 -18.2749 -18.2723 -18.2699 -18.2681 -18.2658 -18.2639
   -18.2627 -18.2588 -18.2583 -18.2528 -18.2461 -18.2408 -18.2294 -18.2273
   -18.2165 -18.2131 -18.2067 -18.2040 -18.2019 -18.1979 -18.1952 -18.1934
   -18.1901 -18.1898 -18.1893 -18.1878 -18.1826 -18.1815 -18.1802 -18.1799
   -18.1799 -18.1773 -18.1767 -18.1738 -18.1702 -18.1700 -18.1655 -18.1630
    -9.4821  -9.3761  -9.3253  -9.2736  -9.1661  -9.1246  -9.0577  -9.0379
    -9.0117  -8.9684  -8.9428  -8.9260  -8.8889  -8.8754  -8.8482  -8.8144
    -8.7723  -8.7458  -8.7219  -8.7040  -8.6426  -8.5751  -8.5342  -8.5022
    -5.2720  -5.2645  -5.2495  -5.2246  -5.2142  -5.2079  -5.1734  -5.1564
    -5.1542  -5.1516  -5.1459  -5.1407  -5.1400  -5.1329  -5.1298  -5.0568
    -5.0494  -5.0389  -5.0368  -5.0325  -5.0281  -5.0175  -5.0080  -5.0048
    -4.4674  -3.9610  -3.9302  -3.9005  -3.3997  -3.3629  -3.3353  -2.7357
    -0.7625  -0.7152  -0.6774  -0.6313  -0.6055  -0.5496  -0.4972  -0.4843
    -0.4416  -0.3521  -0.2721  -0.2051   0.4118   0.4549   0.4728   0.5663
     0.6155   0.6788   0.7160   0.7839   0.8200   0.9201   0.9323   0.9645
     0.9823   1.0230   1.0614   1.0778   1.1205   1.1487   1.1634   1.1786
     1.2120   1.2329   1.2428   1.2517   1.2970   1.3169   1.3388   1.3497
     1.3788   1.4148   1.4469   1.4632   1.4779   1.5022   1.5141   1.5337
     1.5736   1.5868   1.6167   1.6287   1.6724   1.6790   1.7118   1.7545
     1.7885   1.8182   1.8547   1.9825   2.0182   2.0465   2.0765   2.0985
     2.1500   2.1568   2.2347   2.3176   2.6635   2.6953   2.7756   3.1367

          k = 0.1250-0.1250-0.1250 (132670 PWs)   bands (ev):

   -18.4965 -18.4427 -18.3937 -18.3784 -18.3752 -18.2935 -18.2911 -18.2852
   -18.2759 -18.2751 -18.2749 -18.2723 -18.2699 -18.2681 -18.2658 -18.2639
   -18.2627 -18.2588 -18.2583 -18.2528 -18.2461 -18.2408 -18.2294 -18.2273
   -18.2165 -18.2131 -18.2067 -18.2040 -18.2019 -18.1979 -18.1952 -18.1934
   -18.1901 -18.1898 -18.1893 -18.1878 -18.1826 -18.1815 -18.1802 -18.1799
   -18.1799 -18.1773 -18.1767 -18.1738 -18.1702 -18.1700 -18.1655 -18.1630
    -9.4817  -9.3782  -9.3241  -9.2722  -9.1696  -9.1205  -9.0571  -9.0372
    -9.0135  -8.9685  -8.9475  -8.9295  -8.8859  -8.8738  -8.8433  -8.8127
    -8.7742  -8.7486  -8.7213  -8.7046  -8.6421  -8.5750  -8.5342  -8.5022
    -5.2720  -5.2643  -5.2496  -5.2246  -5.2143  -5.2079  -5.1734  -5.1564
    -5.1541  -5.1517  -5.1460  -5.1413  -5.1394  -5.1321  -5.1304  -5.0569
    -5.0495  -5.0387  -5.0368  -5.0324  -5.0278  -5.0175  -5.0082  -5.0050
    -4.4668  -3.9789  -3.9200  -3.8911  -3.4041  -3.3824  -3.3123  -2.7371
    -0.7633  -0.7334  -0.6710  -0.6203  -0.6096  -0.5481  -0.5163  -0.4697
    -0.4284  -0.3473  -0.2817  -0.2018   0.4132   0.4553   0.4764   0.5631
     0.6229   0.6674   0.7232   0.7899   0.8233   0.9015   0.9269   0.9657
     0.9982   1.0250   1.0565   1.0752   1.1222   1.1297   1.1511   1.1811
     1.2043   1.2283   1.2427   1.2686   1.3029   1.3080   1.3503   1.3584
     1.3875   1.3979   1.4341   1.4613   1.4835   1.5121   1.5187   1.5371
     1.5712   1.5842   1.6158   1.6297   1.6719   1.6992   1.7092   1.7347
     1.7881   1.8249   1.8532   1.9804   1.9967   2.0382   2.0822   2.1008
     2.1571   2.1773   2.2424   2.3196   2.6575   2.6905   2.7748   3.1405

          k =-0.1250-0.1250 0.3750 (132608 PWs)   bands (ev):

   -18.4965 -18.4427 -18.3937 -18.3784 -18.3752 -18.2935 -18.2911 -18.2852
   -18.2759 -18.2751 -18.2749 -18.2723 -18.2699 -18.2681 -18.2658 -18.2639
   -18.2627 -18.2588 -18.2583 -18.2528 -18.2461 -18.2408 -18.2294 -18.2272
   -18.2165 -18.2131 -18.2067 -18.2040 -18.2019 -18.1979 -18.1952 -18.1934
   -18.1901 -18.1898 -18.1893 -18.1878 -18.1826 -18.1815 -18.1802 -18.1799
   -18.1799 -18.1773 -18.1767 -18.1738 -18.1702 -18.1700 -18.1655 -18.1630
    -9.4643  -9.3878  -9.3336  -9.2569  -9.1934  -9.1460  -9.0507  -9.0331
    -9.0059  -8.9626  -8.9425  -8.9250  -8.8870  -8.8602  -8.8413  -8.8248
    -8.7735  -8.7483  -8.7217  -8.6861  -8.6578  -8.5722  -8.5308  -8.5119
    -5.2719  -5.2639  -5.2490  -5.2246  -5.2147  -5.2079  -5.1736  -5.1595
    -5.1534  -5.1514  -5.1459  -5.1407  -5.1381  -5.1328  -5.1295  -5.0563
    -5.0495  -5.0391  -5.0366  -5.0328  -5.0277  -5.0176  -5.0078  -5.0057
    -4.3394  -4.1118  -3.8105  -3.7842  -3.5733  -3.5410  -3.2218  -2.9691
    -0.7007  -0.6508  -0.6049  -0.5833  -0.5577  -0.5013  -0.4084  -0.3659
    -0.1569  -0.1384  -0.0207   0.1151   0.3851   0.4333   0.4690   0.4865
     0.5300   0.5611   0.6190   0.6558   0.7003   0.7337   0.7839   0.8248
     0.8603   0.9136   0.9705   1.0189   1.0568   1.1153   1.1333   1.1770
     1.1936   1.2135   1.2641   1.2930   1.3029   1.3223   1.3624   1.3799
     1.4034   1.4155   1.4321   1.4734   1.5055   1.5219   1.5308   1.5673
     1.5862   1.6137   1.6225   1.6557   1.6722   1.6988   1.7260   1.7438
     1.7896   1.8322   1.8722   1.8877   1.9205   1.9616   2.0150   2.0485
     2.0983   2.1324   2.2516   2.3317   2.4200   2.4734   2.7177   2.8487

          k =-0.1250 0.1250-0.3750 (132608 PWs)   bands (ev):

   -18.4965 -18.4427 -18.3937 -18.3784 -18.3752 -18.2935 -18.2911 -18.2852
   -18.2759 -18.2751 -18.2749 -18.2723 -18.2699 -18.2681 -18.2658 -18.2639
   -18.2627 -18.2588 -18.2583 -18.2528 -18.2461 -18.2408 -18.2294 -18.2272
   -18.2165 -18.2131 -18.2067 -18.2040 -18.2019 -18.1979 -18.1952 -18.1934
   -18.1901 -18.1898 -18.1893 -18.1878 -18.1826 -18.1815 -18.1802 -18.1799
   -18.1799 -18.1773 -18.1767 -18.1738 -18.1702 -18.1700 -18.1655 -18.1630
    -9.4647  -9.3857  -9.3348  -9.2589  -9.1939  -9.1450  -9.0480  -9.0321
    -9.0068  -8.9618  -8.9434  -8.9240  -8.8901  -8.8612  -8.8415  -8.8277
    -8.7680  -8.7483  -8.7222  -8.6861  -8.6587  -8.5719  -8.5311  -8.5119
    -5.2719  -5.2640  -5.2489  -5.2246  -5.2146  -5.2080  -5.1735  -5.1596
    -5.1533  -5.1513  -5.1459  -5.1409  -5.1379  -5.1328  -5.1296  -5.0564
    -5.0494  -5.0391  -5.0365  -5.0327  -5.0281  -5.0177  -5.0077  -5.0055
    -4.3402  -4.1072  -3.8199  -3.7818  -3.5802  -3.5303  -3.2237  -2.9671
    -0.7268  -0.6542  -0.6157  -0.5811  -0.5271  -0.4825  -0.4040  -0.3710
    -0.1854  -0.1233  -0.0005   0.0984   0.3903   0.4365   0.4580   0.4911
     0.5355   0.5657   0.6203   0.6534   0.6961   0.7290   0.7750   0.8263
     0.8563   0.9117   0.9687   1.0212   1.0654   1.1146   1.1291   1.1503
     1.2223   1.2467   1.2660   1.2732   1.3021   1.3221   1.3463   1.3691
     1.3892   1.4304   1.4464   1.4676   1.4947   1.5113   1.5395   1.5603
     1.5898   1.5978   1.6402   1.6440   1.6911   1.7083   1.7262   1.7646
     1.7932   1.8359   1.8828   1.8876   1.9186   1.9602   2.0060   2.0399
     2.0850   2.1263   2.2480   2.3157   2.4166   2.4858   2.7393   2.8564

          k = 0.1250-0.1250-0.3750 (132608 PWs)   bands (ev):

   -18.4965 -18.4427 -18.3937 -18.3784 -18.3752 -18.2935 -18.2911 -18.2852
   -18.2759 -18.2751 -18.2749 -18.2723 -18.2699 -18.2681 -18.2658 -18.2639
   -18.2627 -18.2588 -18.2583 -18.2528 -18.2461 -18.2408 -18.2294 -18.2272
   -18.2165 -18.2131 -18.2067 -18.2040 -18.2019 -18.1979 -18.1952 -18.1934
   -18.1901 -18.1898 -18.1893 -18.1878 -18.1826 -18.1815 -18.1802 -18.1799
   -18.1799 -18.1773 -18.1767 -18.1738 -18.1702 -18.1700 -18.1655 -18.1630
    -9.4639  -9.3886  -9.3327  -9.2572  -9.1974  -9.1422  -9.0455  -9.0333
    -9.0078  -8.9601  -8.9495  -8.9283  -8.8825  -8.8609  -8.8477  -8.8164
    -8.7723  -8.7489  -8.7223  -8.6879  -8.6573  -8.5717  -8.5310  -8.5119
    -5.2719  -5.2639  -5.2490  -5.2245  -5.2146  -5.2080  -5.1736  -5.1595
    -5.1533  -5.1514  -5.1461  -5.1410  -5.1376  -5.1324  -5.1300  -5.0564
    -5.0495  -5.0390  -5.0366  -5.0327  -5.0278  -5.0177  -5.0078  -5.0056
    -4.3380  -4.1142  -3.8105  -3.7801  -3.5822  -3.5395  -3.2146  -2.9712
    -0.7264  -0.6571  -0.6246  -0.5742  -0.5255  -0.4869  -0.4039  -0.3816
    -0.1549  -0.1159  -0.0189   0.1060   0.3833   0.4345   0.4745   0.5068
     0.5156   0.5600   0.6270   0.6520   0.6934   0.7285   0.7713   0.8199
     0.8588   0.9034   0.9760   1.0213   1.0697   1.1015   1.1183   1.1576
     1.2174   1.2385   1.2610   1.2848   1.3033   1.3329   1.3462   1.3775
     1.4032   1.4114   1.4295   1.4573   1.4976   1.5161   1.5546   1.5744
     1.5781   1.5998   1.6366   1.6639   1.6746   1.7005   1.7393   1.7618
     1.8003   1.8303   1.8589   1.8869   1.9180   1.9681   2.0035   2.0478
     2.0943   2.1424   2.2445   2.3204   2.4166   2.4686   2.7424   2.8565

          k = 0.3750-0.1250 0.1250 (132608 PWs)   bands (ev):

   -18.4965 -18.4427 -18.3937 -18.3784 -18.3752 -18.2935 -18.2911 -18.2852
   -18.2758 -18.2752 -18.2749 -18.2723 -18.2699 -18.2681 -18.2658 -18.2639
   -18.2627 -18.2588 -18.2583 -18.2528 -18.2461 -18.2408 -18.2294 -18.2273
   -18.2165 -18.2131 -18.2067 -18.2040 -18.2019 -18.1979 -18.1952 -18.1935
   -18.1901 -18.1898 -18.1893 -18.1878 -18.1827 -18.1815 -18.1802 -18.1799
   -18.1799 -18.1773 -18.1767 -18.1738 -18.1702 -18.1700 -18.1655 -18.1630
    -9.4648  -9.3959  -9.3170  -9.2705  -9.1830  -9.1267  -9.0690  -9.0386
    -9.0049  -8.9738  -8.9534  -8.9328  -8.8725  -8.8579  -8.8402  -8.8146
    -8.7565  -8.7426  -8.7334  -8.7053  -8.6452  -8.5732  -8.5392  -8.5066
    -5.2719  -5.2642  -5.2491  -5.2246  -5.2139  -5.2077  -5.1736  -5.1563
    -5.1542  -5.1516  -5.1461  -5.1407  -5.1399  -5.1331  -5.1301  -5.0566
    -5.0492  -5.0382  -5.0366  -5.0337  -5.0282  -5.0175  -5.0084  -5.0050
    -4.3419  -4.1030  -3.8254  -3.7887  -3.5540  -3.5322  -3.2544  -2.9436
    -0.7205  -0.6853  -0.6325  -0.5777  -0.5457  -0.5227  -0.3881  -0.3369
    -0.1419  -0.0907  -0.0237   0.0564   0.3459   0.4514   0.4818   0.5213
     0.5357   0.5784   0.6152   0.6612   0.7012   0.7277   0.7532   0.7750
     0.8744   0.9571   1.0128   1.0261   1.0664   1.0881   1.1497   1.1781
     1.2022   1.2278   1.2481   1.2598   1.3037   1.3177   1.3346   1.3633
     1.3817   1.4281   1.4593   1.4814   1.5034   1.5131   1.5447   1.5549
     1.5925   1.6198   1.6367   1.6531   1.6762   1.7063   1.7563   1.7872
     1.8037   1.8374   1.8621   1.8884   1.9166   1.9833   2.0095   2.0539
     2.0877   2.1051   2.2141   2.2787   2.3783   2.4872   2.7161   2.8647

          k =-0.3750-0.1250-0.1250 (132608 PWs)   bands (ev):

   -18.4965 -18.4427 -18.3937 -18.3784 -18.3752 -18.2935 -18.2911 -18.2852
   -18.2758 -18.2752 -18.2749 -18.2723 -18.2699 -18.2681 -18.2658 -18.2639
   -18.2627 -18.2588 -18.2583 -18.2528 -18.2461 -18.2408 -18.2294 -18.2273
   -18.2165 -18.2131 -18.2067 -18.2040 -18.2019 -18.1979 -18.1952 -18.1935
   -18.1901 -18.1898 -18.1893 -18.1878 -18.1827 -18.1815 -18.1802 -18.1799
   -18.1799 -18.1773 -18.1767 -18.1738 -18.1702 -18.1700 -18.1655 -18.1630
    -9.4650  -9.3956  -9.3171  -9.2721  -9.1789  -9.1269  -9.0699  -9.0404
    -9.0078  -8.9707  -8.9546  -8.9336  -8.8775  -8.8520  -8.8379  -8.8122
    -8.7568  -8.7440  -8.7337  -8.7074  -8.6448  -8.5737  -8.5383  -8.5067
    -5.2719  -5.2643  -5.2491  -5.2246  -5.2140  -5.2076  -5.1736  -5.1562
    -5.1541  -5.1517  -5.1463  -5.1412  -5.1394  -5.1325  -5.1305  -5.0567
    -5.0492  -5.0383  -5.0366  -5.0336  -5.0281  -5.0175  -5.0084  -5.0050
    -4.3426  -4.1006  -3.8358  -3.7796  -3.5703  -3.5130  -3.2566  -2.9454
    -0.7297  -0.6733  -0.6216  -0.5829  -0.5336  -0.5213  -0.3927  -0.3341
    -0.1539  -0.1033  -0.0534   0.0569   0.3714   0.4592   0.4819   0.5249
     0.5369   0.5811   0.6109   0.6809   0.6992   0.7245   0.7548   0.7750
     0.8784   0.9621   1.0161   1.0387   1.0665   1.0891   1.1200   1.1402
     1.1899   1.2194   1.2480   1.2784   1.2984   1.3221   1.3472   1.3536
     1.3927   1.4175   1.4438   1.4832   1.5143   1.5306   1.5584   1.5693
     1.6142   1.6196   1.6365   1.6639   1.6804   1.7012   1.7536   1.7705
     1.7930   1.8121   1.8644   1.8861   1.9125   1.9769   2.0152   2.0499
     2.0863   2.1046   2.2309   2.2953   2.3580   2.4906   2.7201   2.8519

          k = 0.3750 0.1250-0.1250 (132608 PWs)   bands (ev):

   -18.4965 -18.4427 -18.3937 -18.3784 -18.3752 -18.2935 -18.2911 -18.2852
   -18.2758 -18.2752 -18.2749 -18.2723 -18.2699 -18.2681 -18.2658 -18.2639
   -18.2627 -18.2588 -18.2583 -18.2528 -18.2461 -18.2408 -18.2294 -18.2273
   -18.2165 -18.2131 -18.2067 -18.2040 -18.2019 -18.1979 -18.1952 -18.1935
   -18.1901 -18.1898 -18.1893 -18.1878 -18.1827 -18.1815 -18.1802 -18.1799
   -18.1799 -18.1773 -18.1767 -18.1738 -18.1702 -18.1700 -18.1655 -18.1630
    -9.4646  -9.3969  -9.3167  -9.2698  -9.1810  -9.1266  -9.0729  -9.0394
    -9.0053  -8.9727  -8.9533  -8.9337  -8.8714  -8.8582  -8.8334  -8.8157
    -8.7610  -8.7441  -8.7325  -8.7053  -8.6440  -8.5740  -8.5385  -8.5067
    -5.2719  -5.2641  -5.2492  -5.2246  -5.2140  -5.2076  -5.1736  -5.1563
    -5.1542  -5.1518  -5.1461  -5.1407  -5.1399  -5.1331  -5.1299  -5.0565
    -5.0493  -5.0382  -5.0366  -5.0338  -5.0279  -5.0174  -5.0085  -5.0052
    -4.3419  -4.1052  -3.8224  -3.7870  -3.5558  -3.5329  -3.2532  -2.9456
    -0.7090  -0.6876  -0.6359  -0.5806  -0.5353  -0.5130  -0.3880  -0.3520
    -0.1603  -0.0906  -0.0271   0.0446   0.3731   0.4510   0.4933   0.5122
     0.5287   0.5729   0.6144   0.6677   0.7082   0.7254   0.7520   0.7890
     0.8763   0.9555   1.0210   1.0424   1.0586   1.0879   1.1353   1.1671
     1.1963   1.2177   1.2413   1.2682   1.2977   1.3287   1.3408   1.3622
     1.3821   1.4225   1.4467   1.4877   1.4996   1.5317   1.5458   1.5710
     1.5950   1.6216   1.6379   1.6539   1.6721   1.7028   1.7543   1.7731
     1.7934   1.8284   1.8565   1.8725   1.9204   1.9762   2.0132   2.0664
     2.0837   2.1349   2.2184   2.3166   2.3702   2.4487   2.7199   2.8569

          k =-0.3750 0.1250 0.1250 (132608 PWs)   bands (ev):

   -18.4965 -18.4427 -18.3937 -18.3784 -18.3752 -18.2935 -18.2911 -18.2852
   -18.2758 -18.2752 -18.2749 -18.2723 -18.2699 -18.2681 -18.2658 -18.2639
   -18.2627 -18.2588 -18.2583 -18.2528 -18.2461 -18.2408 -18.2294 -18.2273
   -18.2165 -18.2131 -18.2067 -18.2040 -18.2019 -18.1979 -18.1952 -18.1935
   -18.1901 -18.1898 -18.1893 -18.1878 -18.1827 -18.1815 -18.1802 -18.1799
   -18.1799 -18.1773 -18.1767 -18.1738 -18.1702 -18.1700 -18.1655 -18.1630
    -9.4642  -9.3974  -9.3166  -9.2698  -9.1843  -9.1235  -9.0693  -9.0383
    -9.0069  -8.9719  -8.9600  -8.9322  -8.8736  -8.8521  -8.8403  -8.8118
    -8.7572  -8.7456  -8.7341  -8.7048  -8.6450  -8.5730  -8.5392  -8.5066
    -5.2719  -5.2641  -5.2492  -5.2246  -5.2139  -5.2077  -5.1737  -5.1563
    -5.1540  -5.1518  -5.1462  -5.1412  -5.1393  -5.1324  -5.1306  -5.0566
    -5.0493  -5.0381  -5.0366  -5.0337  -5.0279  -5.0175  -5.0085  -5.0051
    -4.3405  -4.1067  -3.8309  -3.7767  -3.5722  -3.5190  -3.2519  -2.9453
    -0.7293  -0.6841  -0.6299  -0.5770  -0.5455  -0.5191  -0.3936  -0.3394
    -0.1485  -0.0705  -0.0133   0.0512   0.3472   0.4484   0.4955   0.5054
     0.5310   0.5798   0.6186   0.6568   0.7026   0.7149   0.7449   0.8055
     0.8685   0.9609   1.0112   1.0445   1.0772   1.0996   1.1169   1.1350
     1.1953   1.2192   1.2451   1.2705   1.3051   1.3151   1.3253   1.3575
     1.4123   1.4286   1.4508   1.4775   1.5160   1.5184   1.5463   1.5672
     1.5926   1.6186   1.6328   1.6588   1.6842   1.7237   1.7426   1.7824
     1.8145   1.8395   1.8539   1.8742   1.9071   1.9737   1.9943   2.0715
     2.0928   2.1173   2.2063   2.3071   2.3777   2.4708   2.7136   2.8653

          k =-0.1250 0.3750 0.1250 (132608 PWs)   bands (ev):

   -18.4965 -18.4427 -18.3937 -18.3784 -18.3752 -18.2935 -18.2911 -18.2852
   -18.2759 -18.2751 -18.2749 -18.2723 -18.2699 -18.2681 -18.2658 -18.2639
   -18.2627 -18.2588 -18.2583 -18.2528 -18.2461 -18.2408 -18.2294 -18.2272
   -18.2165 -18.2131 -18.2067 -18.2040 -18.2019 -18.1979 -18.1952 -18.1934
   -18.1901 -18.1898 -18.1893 -18.1878 -18.1826 -18.1815 -18.1802 -18.1799
   -18.1799 -18.1773 -18.1767 -18.1738 -18.1702 -18.1700 -18.1655 -18.1630
    -9.4733  -9.3757  -9.3197  -9.2786  -9.1897  -9.1162  -9.0780  -9.0382
    -9.0116  -8.9693  -8.9521  -8.9134  -8.8902  -8.8548  -8.8442  -8.8130
    -8.7676  -8.7392  -8.7231  -8.6938  -8.6551  -8.5749  -8.5430  -8.5029
    -5.2718  -5.2643  -5.2496  -5.2245  -5.2140  -5.2078  -5.1733  -5.1560
    -5.1535  -5.1524  -5.1459  -5.1411  -5.1374  -5.1340  -5.1314  -5.0571
    -5.0496  -5.0390  -5.0370  -5.0325  -5.0276  -5.0174  -5.0083  -5.0051
    -4.3554  -4.0941  -3.8439  -3.7849  -3.5562  -3.5240  -3.2277  -2.9285
    -0.7386  -0.7074  -0.6420  -0.6285  -0.5757  -0.5111  -0.4019  -0.3639
    -0.1234  -0.0949  -0.0279   0.0960   0.4080   0.4447   0.4776   0.5012
     0.5493   0.5943   0.6208   0.6598   0.7001   0.7193   0.7470   0.7864
     0.8848   0.9363   0.9820   1.0602   1.0672   1.0999   1.1314   1.1656
     1.1953   1.2135   1.2395   1.2752   1.2866   1.3264   1.3541   1.3842
     1.4112   1.4281   1.4598   1.4648   1.4912   1.5232   1.5453   1.5648
     1.5763   1.6164   1.6430   1.6556   1.6894   1.7170   1.7495   1.7712
     1.7911   1.8462   1.8573   1.8984   1.9373   1.9725   1.9925   2.0132
     2.0579   2.1583   2.2405   2.3578   2.4045   2.5036   2.7661   2.9064

          k =-0.1250-0.3750-0.1250 (132608 PWs)   bands (ev):

   -18.4965 -18.4427 -18.3937 -18.3784 -18.3752 -18.2935 -18.2911 -18.2852
   -18.2759 -18.2751 -18.2749 -18.2723 -18.2699 -18.2681 -18.2658 -18.2639
   -18.2627 -18.2588 -18.2583 -18.2528 -18.2461 -18.2408 -18.2294 -18.2272
   -18.2165 -18.2131 -18.2067 -18.2040 -18.2019 -18.1979 -18.1952 -18.1934
   -18.1901 -18.1898 -18.1893 -18.1878 -18.1826 -18.1815 -18.1802 -18.1799
   -18.1799 -18.1773 -18.1767 -18.1738 -18.1702 -18.1700 -18.1655 -18.1630
    -9.4737  -9.3743  -9.3198  -9.2801  -9.1882  -9.1151  -9.0812  -9.0402
    -9.0098  -8.9687  -8.9481  -8.9222  -8.8847  -8.8510  -8.8462  -8.8134
    -8.7686  -8.7401  -8.7216  -8.6956  -8.6541  -8.5758  -8.5421  -8.5029
    -5.2718  -5.2644  -5.2495  -5.2245  -5.2141  -5.2077  -5.1733  -5.1559
    -5.1535  -5.1525  -5.1460  -5.1411  -5.1374  -5.1340  -5.1314  -5.0571
    -5.0496  -5.0391  -5.0370  -5.0325  -5.0278  -5.0174  -5.0082  -5.0049
    -4.3568  -4.0924  -3.8294  -3.8012  -3.5470  -3.5312  -3.2282  -2.9293
    -0.7443  -0.6848  -0.6497  -0.6097  -0.5814  -0.5096  -0.4041  -0.3700
    -0.1497  -0.1095  -0.0213   0.0866   0.4058   0.4753   0.4796   0.4942
     0.5334   0.5950   0.6386   0.6566   0.7072   0.7289   0.7429   0.7873
     0.9011   0.9246   0.9780   1.0540   1.0766   1.1008   1.1362   1.1624
     1.2011   1.2207   1.2390   1.2652   1.2853   1.3265   1.3466   1.3643
     1.4040   1.4328   1.4482   1.4744   1.5024   1.5441   1.5497   1.5732
     1.5948   1.6168   1.6422   1.6626   1.6755   1.7087   1.7385   1.7669
     1.7918   1.8390   1.8594   1.8922   1.9298   1.9660   1.9946   2.0258
     2.0581   2.1528   2.2353   2.3623   2.4028   2.4833   2.7937   2.8938

          k = 0.1250 0.3750-0.1250 (132608 PWs)   bands (ev):

   -18.4965 -18.4427 -18.3937 -18.3784 -18.3752 -18.2935 -18.2911 -18.2852
   -18.2759 -18.2751 -18.2749 -18.2723 -18.2699 -18.2681 -18.2658 -18.2639
   -18.2627 -18.2588 -18.2583 -18.2528 -18.2461 -18.2408 -18.2294 -18.2272
   -18.2165 -18.2131 -18.2067 -18.2040 -18.2019 -18.1979 -18.1952 -18.1934
   -18.1901 -18.1898 -18.1893 -18.1878 -18.1826 -18.1815 -18.1802 -18.1799
   -18.1799 -18.1773 -18.1767 -18.1738 -18.1702 -18.1700 -18.1655 -18.1630
    -9.4736  -9.3745  -9.3203  -9.2799  -9.1854  -9.1167  -9.0846  -9.0388
    -9.0110  -8.9655  -8.9522  -8.9082  -8.8939  -8.8551  -8.8430  -8.8149
    -8.7691  -8.7403  -8.7219  -8.6931  -8.6545  -8.5760  -8.5422  -8.5030
    -5.2718  -5.2643  -5.2496  -5.2245  -5.2141  -5.2076  -5.1733  -5.1559
    -5.1539  -5.1523  -5.1457  -5.1404  -5.1382  -5.1347  -5.1307  -5.0569
    -5.0496  -5.0391  -5.0369  -5.0326  -5.0276  -5.0173  -5.0083  -5.0051
    -4.3572  -4.0895  -3.8471  -3.7878  -3.5551  -3.5167  -3.2347  -2.9274
    -0.7338  -0.6932  -0.6503  -0.6199  -0.5702  -0.5082  -0.4221  -0.3565
    -0.1521  -0.1135  -0.0032   0.0789   0.4102   0.4591   0.4762   0.4951
     0.5322   0.5903   0.6236   0.6608   0.7253   0.7329   0.7595   0.7930
     0.8857   0.9347   0.9862   1.0548   1.0682   1.0977   1.1365   1.1569
     1.1916   1.2194   1.2390   1.2716   1.2953   1.3277   1.3450   1.3818
     1.4058   1.4194   1.4496   1.4695   1.4818   1.5252   1.5510   1.5688
     1.6036   1.6260   1.6381   1.6559   1.6829   1.7006   1.7440   1.7614
     1.7921   1.8446   1.8613   1.8982   1.9391   1.9603   1.9978   2.0213
     2.0554   2.1665   2.2430   2.3510   2.4146   2.4950   2.7691   2.8923

          k = 0.1250-0.3750 0.1250 (132608 PWs)   bands (ev):

   -18.4965 -18.4427 -18.3937 -18.3784 -18.3752 -18.2935 -18.2911 -18.2852
   -18.2759 -18.2751 -18.2749 -18.2723 -18.2699 -18.2681 -18.2658 -18.2639
   -18.2627 -18.2588 -18.2583 -18.2528 -18.2461 -18.2408 -18.2294 -18.2272
   -18.2165 -18.2131 -18.2067 -18.2040 -18.2019 -18.1979 -18.1952 -18.1934
   -18.1901 -18.1898 -18.1893 -18.1878 -18.1826 -18.1815 -18.1802 -18.1799
   -18.1799 -18.1773 -18.1767 -18.1738 -18.1702 -18.1700 -18.1655 -18.1630
    -9.4737  -9.3738  -9.3205  -9.2796  -9.1896  -9.1158  -9.0808  -9.0391
    -9.0080  -8.9688  -8.9494  -8.9188  -8.8792  -8.8598  -8.8493  -8.8141
    -8.7673  -8.7383  -8.7231  -8.6919  -8.6556  -8.5752  -8.5431  -8.5028
    -5.2718  -5.2644  -5.2495  -5.2245  -5.2140  -5.2077  -5.1733  -5.1559
    -5.1538  -5.1522  -5.1457  -5.1404  -5.1382  -5.1346  -5.1309  -5.0570
    -5.0496  -5.0391  -5.0369  -5.0325  -5.0279  -5.0174  -5.0082  -5.0050
    -4.3567  -4.0913  -3.8305  -3.8034  -3.5482  -3.5261  -3.2325  -2.9260
    -0.7461  -0.6898  -0.6506  -0.6170  -0.5729  -0.5211  -0.4208  -0.3465
    -0.1254  -0.1035  -0.0187   0.0894   0.4076   0.4344   0.4754   0.5047
     0.5354   0.6027   0.6171   0.6575   0.6951   0.7250   0.7611   0.7932
     0.8931   0.9274   0.9781   1.0596   1.0965   1.1046   1.1424   1.1643
     1.1905   1.2204   1.2359   1.2512   1.2889   1.3193   1.3593   1.3864
     1.4014   1.4304   1.4458   1.4649   1.5026   1.5177   1.5396   1.5756
     1.5946   1.6213   1.6330   1.6647   1.6834   1.7018   1.7544   1.7731
     1.7961   1.8290   1.8510   1.9083   1.9440   1.9657   2.0050   2.0211
     2.0516   2.1455   2.2327   2.3520   2.3979   2.5057   2.7740   2.9160

          k =-0.1250-0.3750 0.3750 (132616 PWs)   bands (ev):

   -18.4965 -18.4427 -18.3937 -18.3784 -18.3752 -18.2935 -18.2911 -18.2852
   -18.2759 -18.2751 -18.2749 -18.2723 -18.2699 -18.2681 -18.2658 -18.2639
   -18.2627 -18.2588 -18.2583 -18.2528 -18.2461 -18.2408 -18.2294 -18.2272
   -18.2165 -18.2131 -18.2067 -18.2040 -18.2019 -18.1979 -18.1952 -18.1934
   -18.1901 -18.1898 -18.1893 -18.1878 -18.1826 -18.1815 -18.1802 -18.1799
   -18.1799 -18.1773 -18.1767 -18.1738 -18.1702 -18.1700 -18.1655 -18.1630
    -9.4577  -9.3798  -9.3303  -9.2659  -9.2119  -9.1405  -9.0770  -9.0363
    -8.9979  -8.9591  -8.9496  -8.9173  -8.8811  -8.8513  -8.8350  -8.8265
    -8.7608  -8.7396  -8.7269  -8.6865  -8.6639  -8.5710  -8.5387  -8.5131
    -5.2718  -5.2639  -5.2490  -5.2246  -5.2145  -5.2078  -5.1734  -5.1593
    -5.1539  -5.1517  -5.1459  -5.1427  -5.1359  -5.1338  -5.1285  -5.0563
    -5.0496  -5.0391  -5.0366  -5.0327  -5.0276  -5.0177  -5.0078  -5.0057
    -4.2332  -4.0131  -3.9401  -3.7373  -3.6806  -3.4362  -3.3791  -3.1400
    -0.6755  -0.6204  -0.5975  -0.4875  -0.3586  -0.3056  -0.1732  -0.1457
    -0.1295  -0.0105   0.0910   0.1635   0.3353   0.3751   0.4380   0.4779
     0.5185   0.5243   0.5687   0.6003   0.6543   0.6822   0.7201   0.7635
     0.7942   0.8633   0.9141   0.9421   0.9826   1.0140   1.0523   1.1029
     1.1486   1.1660   1.1942   1.2412   1.2771   1.3023   1.3335   1.3496
     1.3941   1.4055   1.4428   1.4876   1.5125   1.5265   1.5596   1.5753
     1.6240   1.6515   1.6720   1.7105   1.7161   1.7404   1.7582   1.7806
     1.8195   1.8501   1.8616   1.8983   1.9124   1.9330   1.9586   1.9831
     2.0424   2.0680   2.0962   2.1753   2.3633   2.4498   2.5124   2.6183

          k =-0.1250 0.3750-0.3750 (132616 PWs)   bands (ev):

   -18.4965 -18.4427 -18.3937 -18.3784 -18.3752 -18.2935 -18.2911 -18.2852
   -18.2759 -18.2751 -18.2749 -18.2723 -18.2699 -18.2681 -18.2658 -18.2639
   -18.2627 -18.2588 -18.2583 -18.2528 -18.2461 -18.2408 -18.2294 -18.2272
   -18.2165 -18.2131 -18.2067 -18.2040 -18.2019 -18.1979 -18.1952 -18.1934
   -18.1901 -18.1898 -18.1893 -18.1878 -18.1826 -18.1815 -18.1802 -18.1799
   -18.1799 -18.1773 -18.1767 -18.1738 -18.1702 -18.1700 -18.1655 -18.1630
    -9.4580  -9.3779  -9.3313  -9.2662  -9.2152  -9.1384  -9.0751  -9.0359
    -8.9964  -8.9594  -8.9486  -8.9243  -8.8761  -8.8490  -8.8397  -8.8283
    -8.7580  -8.7381  -8.7285  -8.6863  -8.6642  -8.5707  -8.5391  -8.5130
    -5.2718  -5.2640  -5.2489  -5.2246  -5.2144  -5.2079  -5.1734  -5.1593
    -5.1536  -5.1517  -5.1460  -5.1427  -5.1358  -5.1338  -5.1287  -5.0563
    -5.0496  -5.0391  -5.0365  -5.0326  -5.0280  -5.0178  -5.0077  -5.0055
    -4.2340  -4.0077  -3.9424  -3.7351  -3.6894  -3.4326  -3.3799  -3.1381
    -0.6904  -0.6327  -0.5845  -0.4857  -0.3628  -0.2948  -0.1633  -0.1432
    -0.1081  -0.0234   0.0996   0.1518   0.3319   0.3764   0.4266   0.4735
     0.5138   0.5339   0.5769   0.5928   0.6614   0.6747   0.7249   0.7491
     0.7896   0.8581   0.9007   0.9613   0.9880   1.0113   1.0467   1.1048
     1.1641   1.1693   1.2095   1.2400   1.2742   1.2975   1.3131   1.3368
     1.3965   1.4366   1.4553   1.4662   1.4996   1.5356   1.5545   1.5749
     1.6326   1.6562   1.6739   1.7138   1.7253   1.7307   1.7570   1.7838
     1.8296   1.8425   1.8694   1.8886   1.9126   1.9364   1.9597   1.9876
     2.0333   2.0594   2.0769   2.1763   2.3403   2.4529   2.5328   2.6416

          k = 0.1250-0.3750-0.3750 (132616 PWs)   bands (ev):

   -18.4965 -18.4427 -18.3937 -18.3784 -18.3752 -18.2935 -18.2911 -18.2852
   -18.2759 -18.2751 -18.2749 -18.2723 -18.2699 -18.2681 -18.2658 -18.2639
   -18.2627 -18.2588 -18.2583 -18.2528 -18.2461 -18.2408 -18.2294 -18.2272
   -18.2165 -18.2131 -18.2067 -18.2040 -18.2019 -18.1979 -18.1952 -18.1934
   -18.1901 -18.1898 -18.1893 -18.1878 -18.1826 -18.1815 -18.1802 -18.1799
   -18.1799 -18.1773 -18.1767 -18.1738 -18.1702 -18.1700 -18.1655 -18.1630
    -9.4572  -9.3809  -9.3292  -9.2659  -9.2150  -9.1387  -9.0727  -9.0364
    -8.9976  -8.9621  -8.9502  -8.9190  -8.8841  -8.8492  -8.8374  -8.8206
    -8.7605  -8.7373  -8.7283  -8.6897  -8.6628  -8.5704  -8.5390  -8.5131
    -5.2718  -5.2639  -5.2490  -5.2246  -5.2144  -5.2079  -5.1735  -5.1593
    -5.1536  -5.1518  -5.1461  -5.1428  -5.1354  -5.1338  -5.1288  -5.0564
    -5.0496  -5.0390  -5.0366  -5.0326  -5.0277  -5.0178  -5.0078  -5.0057
    -4.2293  -4.0320  -3.9197  -3.7448  -3.6757  -3.4697  -3.3412  -3.1465
    -0.6828  -0.6471  -0.5834  -0.4802  -0.3620  -0.2968  -0.2145  -0.1592
    -0.0507   0.0170   0.0936   0.1520   0.3136   0.3946   0.4197   0.4900
     0.5070   0.5346   0.5748   0.5840   0.6514   0.6814   0.7123   0.7442
     0.7929   0.8613   0.9017   0.9418   0.9871   1.0159   1.0484   1.0948
     1.1498   1.1893   1.2084   1.2387   1.2766   1.3091   1.3219   1.3360
     1.3782   1.4345   1.4577   1.4735   1.5135   1.5189   1.5566   1.5869
     1.6079   1.6469   1.6615   1.7105   1.7386   1.7637   1.7685   1.7951
     1.8014   1.8507   1.8629   1.8786   1.9138   1.9363   1.9730   1.9837
     2.0257   2.0556   2.1018   2.1791   2.3364   2.4531   2.5403   2.6230

          k = 0.3750 0.1250-0.3750 (132616 PWs)   bands (ev):

   -18.4965 -18.4427 -18.3937 -18.3784 -18.3752 -18.2935 -18.2911 -18.2852
   -18.2758 -18.2752 -18.2749 -18.2723 -18.2699 -18.2681 -18.2658 -18.2639
   -18.2627 -18.2588 -18.2583 -18.2528 -18.2461 -18.2408 -18.2294 -18.2272
   -18.2165 -18.2131 -18.2067 -18.2040 -18.2019 -18.1979 -18.1952 -18.1935
   -18.1901 -18.1898 -18.1893 -18.1878 -18.1827 -18.1815 -18.1802 -18.1799
   -18.1799 -18.1773 -18.1767 -18.1738 -18.1702 -18.1700 -18.1655 -18.1630
    -9.4511  -9.3867  -9.3399  -9.2585  -9.2093  -9.1481  -9.0563  -9.0377
    -9.0018  -8.9683  -8.9337  -8.9316  -8.8806  -8.8607  -8.8341  -8.8119
    -8.7651  -8.7474  -8.7262  -8.6882  -8.6589  -8.5708  -8.5354  -8.5152
    -5.2718  -5.2639  -5.2489  -5.2247  -5.2145  -5.2078  -5.1733  -5.1592
    -5.1535  -5.1513  -5.1461  -5.1407  -5.1381  -5.1330  -5.1296  -5.0561
    -5.0495  -5.0384  -5.0371  -5.0337  -5.0276  -5.0175  -5.0080  -5.0055
    -4.2154  -4.0323  -3.9192  -3.7350  -3.6692  -3.4759  -3.3782  -3.1606
    -0.6534  -0.5964  -0.5311  -0.4402  -0.4015  -0.2735  -0.2137  -0.1365
    -0.0949  -0.0041   0.0413   0.1848   0.2998   0.3844   0.4460   0.4711
     0.5069   0.5339   0.5669   0.5965   0.6438   0.6681   0.7089   0.7486
     0.7820   0.8385   0.9001   0.9246   0.9740   1.0225   1.0587   1.1133
     1.1482   1.1828   1.2185   1.2494   1.2937   1.3038   1.3436   1.3647
     1.4011   1.4262   1.4503   1.4826   1.5086   1.5372   1.5703   1.5918
     1.6122   1.6326   1.6504   1.6712   1.7195   1.7283   1.7431   1.7786
     1.8090   1.8428   1.8671   1.8815   1.8978   1.9413   1.9742   2.0033
     2.0642   2.0865   2.1118   2.1624   2.2910   2.4169   2.4431   2.5515

          k =-0.3750-0.1250-0.3750 (132616 PWs)   bands (ev):

   -18.4965 -18.4427 -18.3937 -18.3784 -18.3752 -18.2935 -18.2911 -18.2852
   -18.2758 -18.2752 -18.2749 -18.2723 -18.2699 -18.2681 -18.2658 -18.2639
   -18.2627 -18.2588 -18.2583 -18.2528 -18.2461 -18.2408 -18.2294 -18.2272
   -18.2165 -18.2131 -18.2067 -18.2040 -18.2019 -18.1979 -18.1952 -18.1935
   -18.1901 -18.1898 -18.1893 -18.1878 -18.1827 -18.1815 -18.1802 -18.1799
   -18.1799 -18.1773 -18.1767 -18.1738 -18.1702 -18.1700 -18.1655 -18.1630
    -9.4517  -9.3842  -9.3414  -9.2624  -9.2051  -9.1487  -9.0521  -9.0407
    -9.0034  -8.9661  -8.9395  -8.9282  -8.8836  -8.8571  -8.8361  -8.8121
    -8.7596  -8.7478  -8.7271  -8.6899  -8.6597  -8.5706  -8.5352  -8.5152
    -5.2718  -5.2641  -5.2487  -5.2247  -5.2145  -5.2078  -5.1733  -5.1591
    -5.1533  -5.1514  -5.1463  -5.1408  -5.1379  -5.1326  -5.1301  -5.0563
    -5.0495  -5.0385  -5.0371  -5.0336  -5.0278  -5.0176  -5.0080  -5.0052
    -4.2193  -3.9914  -3.9640  -3.7327  -3.6682  -3.4530  -3.3977  -3.1596
    -0.6570  -0.5915  -0.5367  -0.4423  -0.3967  -0.2497  -0.1986  -0.1770
    -0.0987  -0.0054   0.0492   0.1606   0.3269   0.3855   0.4468   0.4732
     0.4989   0.5519   0.5691   0.5948   0.6501   0.6670   0.7023   0.7435
     0.7681   0.8458   0.8827   0.9192   0.9891   1.0207   1.0673   1.1033
     1.1658   1.1745   1.2200   1.2347   1.2834   1.3127   1.3528   1.3777
     1.4004   1.4124   1.4285   1.4657   1.5270   1.5474   1.5780   1.5875
     1.6173   1.6381   1.6549   1.6867   1.7111   1.7523   1.7671   1.7802
     1.8064   1.8333   1.8575   1.8845   1.8970   1.9267   1.9712   1.9904
     2.0231   2.0654   2.1255   2.1972   2.2812   2.4112   2.4780   2.5341

          k = 0.3750-0.1250 0.3750 (132616 PWs)   bands (ev):

   -18.4965 -18.4427 -18.3937 -18.3784 -18.3752 -18.2935 -18.2911 -18.2852
   -18.2758 -18.2752 -18.2749 -18.2723 -18.2699 -18.2681 -18.2658 -18.2639
   -18.2627 -18.2588 -18.2583 -18.2528 -18.2461 -18.2408 -18.2294 -18.2272
   -18.2165 -18.2131 -18.2067 -18.2040 -18.2019 -18.1979 -18.1952 -18.1935
   -18.1901 -18.1898 -18.1893 -18.1878 -18.1827 -18.1815 -18.1802 -18.1799
   -18.1799 -18.1773 -18.1767 -18.1738 -18.1702 -18.1700 -18.1655 -18.1630
    -9.4518  -9.3836  -9.3419  -9.2611  -9.2087  -9.1477  -9.0537  -9.0370
    -9.0027  -8.9667  -8.9400  -8.9252  -8.8858  -8.8598  -8.8334  -8.8158
    -8.7599  -8.7467  -8.7269  -8.6882  -8.6600  -8.5705  -8.5357  -8.5151
    -5.2718  -5.2641  -5.2488  -5.2247  -5.2144  -5.2079  -5.1733  -5.1593
    -5.1534  -5.1512  -5.1461  -5.1408  -5.1380  -5.1330  -5.1297  -5.0561
    -5.0495  -5.0385  -5.0371  -5.0337  -5.0279  -5.0176  -5.0079  -5.0052
    -4.2194  -3.9891  -3.9649  -3.7325  -3.6715  -3.4505  -3.4011  -3.1564
    -0.6690  -0.5814  -0.5586  -0.4444  -0.3774  -0.2478  -0.2051  -0.1638
    -0.0799  -0.0076   0.0539   0.1628   0.3095   0.3763   0.4484   0.4724
     0.5021   0.5431   0.5693   0.5849   0.6431   0.6761   0.7024   0.7413
     0.7683   0.8425   0.8942   0.9245   0.9787   1.0290   1.0705   1.1093
     1.1513   1.1730   1.2333   1.2532   1.2842   1.3126   1.3423   1.3539
     1.3924   1.4323   1.4579   1.4788   1.5018   1.5303   1.5608   1.5811
     1.6126   1.6359   1.6567   1.6768   1.6977   1.7556   1.7754   1.8007
     1.8266   1.8396   1.8553   1.8903   1.9000   1.9203   1.9700   1.9923
     2.0302   2.0544   2.1199   2.2006   2.2717   2.4105   2.4641   2.5640

          k =-0.3750 0.1250 0.3750 (132616 PWs)   bands (ev):

   -18.4965 -18.4427 -18.3937 -18.3784 -18.3752 -18.2935 -18.2911 -18.2852
   -18.2758 -18.2752 -18.2749 -18.2723 -18.2699 -18.2681 -18.2658 -18.2639
   -18.2627 -18.2588 -18.2583 -18.2528 -18.2461 -18.2408 -18.2294 -18.2272
   -18.2165 -18.2131 -18.2067 -18.2040 -18.2019 -18.1979 -18.1952 -18.1935
   -18.1901 -18.1898 -18.1893 -18.1878 -18.1827 -18.1815 -18.1802 -18.1799
   -18.1799 -18.1773 -18.1767 -18.1738 -18.1702 -18.1700 -18.1655 -18.1630
    -9.4508  -9.3870  -9.3394  -9.2609  -9.2095  -9.1459  -9.0510  -9.0391
    -9.0041  -8.9635  -8.9496  -8.9252  -8.8799  -8.8575  -8.8393  -8.8074
    -8.7632  -8.7473  -8.7273  -8.6892  -8.6594  -8.5702  -8.5356  -8.5152
    -5.2718  -5.2639  -5.2489  -5.2247  -5.2144  -5.2078  -5.1734  -5.1592
    -5.1532  -5.1515  -5.1463  -5.1410  -5.1377  -5.1326  -5.1301  -5.0562
    -5.0495  -5.0384  -5.0371  -5.0336  -5.0276  -5.0176  -5.0081  -5.0054
    -4.2135  -4.0331  -3.9199  -3.7418  -3.6662  -3.4759  -3.3728  -3.1621
    -0.6701  -0.5817  -0.5547  -0.4477  -0.3941  -0.2714  -0.1875  -0.1369
    -0.0828   0.0087   0.0422   0.1908   0.3036   0.3595   0.4458   0.4761
     0.4992   0.5399   0.5634   0.5982   0.6346   0.6598   0.7127   0.7453
     0.7758   0.8433   0.9018   0.9238   0.9706   1.0106   1.0599   1.1066
     1.1493   1.1910   1.2133   1.2569   1.2735   1.3079   1.3676   1.3869
     1.3918   1.4036   1.4385   1.4701   1.4911   1.5372   1.5730   1.6081
     1.6248   1.6427   1.6631   1.6841   1.6982   1.7396   1.7726   1.7938
     1.8127   1.8290   1.8563   1.8821   1.8942   1.9310   1.9706   2.0016
     2.0426   2.0822   2.1213   2.1700   2.2774   2.4245   2.4430   2.5664

          k = 0.3750-0.3750 0.1250 (132616 PWs)   bands (ev):

   -18.4965 -18.4427 -18.3937 -18.3784 -18.3752 -18.2935 -18.2911 -18.2852
   -18.2758 -18.2752 -18.2749 -18.2723 -18.2699 -18.2681 -18.2658 -18.2639
   -18.2627 -18.2588 -18.2583 -18.2528 -18.2461 -18.2408 -18.2294 -18.2272
   -18.2165 -18.2131 -18.2067 -18.2040 -18.2019 -18.1979 -18.1952 -18.1935
   -18.1901 -18.1898 -18.1893 -18.1878 -18.1827 -18.1815 -18.1802 -18.1799
   -18.1799 -18.1773 -18.1767 -18.1738 -18.1702 -18.1700 -18.1655 -18.1630
    -9.4573  -9.3915  -9.3134  -9.2772  -9.1882  -9.1316  -9.0997  -9.0459
    -9.0029  -8.9707  -8.9509  -8.9103  -8.8694  -8.8516  -8.8401  -8.8123
    -8.7551  -8.7408  -8.7307  -8.6954  -8.6556  -8.5749  -8.5451  -8.5071
    -5.2719  -5.2642  -5.2492  -5.2246  -5.2139  -5.2078  -5.1735  -5.1559
    -5.1536  -5.1521  -5.1460  -5.1404  -5.1383  -5.1348  -5.1308  -5.0566
    -5.0493  -5.0382  -5.0367  -5.0337  -5.0279  -5.0173  -5.0085  -5.0050
    -4.2327  -4.0168  -3.9502  -3.7043  -3.6797  -3.4656  -3.3837  -3.1213
    -0.7028  -0.6423  -0.5578  -0.4672  -0.3903  -0.3226  -0.2066  -0.1560
    -0.0792  -0.0193   0.0871   0.2115   0.2749   0.3911   0.4387   0.4715
     0.5078   0.5463   0.5863   0.6135   0.6242   0.6668   0.7040   0.7591
     0.7932   0.9055   0.9371   0.9755   0.9945   1.0401   1.0571   1.0648
     1.1415   1.1655   1.1977   1.2092   1.2570   1.2789   1.3179   1.3567
     1.4146   1.4282   1.4812   1.5013   1.5300   1.5609   1.5837   1.5987
     1.6139   1.6382   1.6636   1.6959   1.7105   1.7298   1.7743   1.7909
     1.8198   1.8403   1.8682   1.8838   1.9045   1.9305   1.9622   1.9959
     2.0356   2.0755   2.0929   2.1678   2.2886   2.4351   2.4955   2.5987

          k =-0.3750-0.3750-0.1250 (132616 PWs)   bands (ev):

   -18.4965 -18.4427 -18.3937 -18.3784 -18.3752 -18.2935 -18.2911 -18.2852
   -18.2758 -18.2752 -18.2749 -18.2723 -18.2699 -18.2681 -18.2658 -18.2639
   -18.2627 -18.2588 -18.2583 -18.2528 -18.2461 -18.2408 -18.2294 -18.2272
   -18.2165 -18.2131 -18.2067 -18.2040 -18.2019 -18.1979 -18.1952 -18.1935
   -18.1901 -18.1898 -18.1893 -18.1878 -18.1827 -18.1815 -18.1802 -18.1799
   -18.1799 -18.1773 -18.1767 -18.1738 -18.1702 -18.1700 -18.1655 -18.1630
    -9.4575  -9.3912  -9.3132  -9.2791  -9.1838  -9.1328  -9.0995  -9.0478
    -9.0042  -8.9703  -8.9509  -8.9157  -8.8614  -8.8522  -8.8397  -8.8108
    -8.7549  -8.7428  -8.7301  -8.6979  -8.6549  -8.5756  -8.5440  -8.5072
    -5.2719  -5.2643  -5.2492  -5.2245  -5.2140  -5.2077  -5.1735  -5.1559
    -5.1533  -5.1525  -5.1463  -5.1410  -5.1375  -5.1343  -5.1313  -5.0567
    -5.0493  -5.0383  -5.0368  -5.0336  -5.0278  -5.0174  -5.0085  -5.0050
    -4.2344  -4.0050  -3.9600  -3.7055  -3.6852  -3.4320  -3.4092  -3.1235
    -0.7014  -0.6518  -0.5509  -0.4540  -0.3596  -0.3030  -0.2157  -0.1648
    -0.1285  -0.0656   0.1002   0.1511   0.3320   0.4254   0.4616   0.4973
     0.5063   0.5491   0.5756   0.6159   0.6265   0.6737   0.7081   0.7482
     0.7886   0.9026   0.9404   0.9614   0.9888   1.0229   1.0367   1.0740
     1.1152   1.1818   1.2196   1.2303   1.2435   1.2704   1.3104   1.3527
     1.4033   1.4441   1.4867   1.5025   1.5282   1.5648   1.5957   1.6049
     1.6173   1.6584   1.6725   1.6931   1.7066   1.7323   1.7589   1.7880
     1.8063   1.8233   1.8614   1.8859   1.9191   1.9382   1.9588   1.9918
     2.0250   2.0656   2.0885   2.1703   2.3203   2.4256   2.4992   2.5857

          k = 0.3750 0.3750-0.1250 (132616 PWs)   bands (ev):

   -18.4965 -18.4427 -18.3937 -18.3784 -18.3752 -18.2935 -18.2911 -18.2852
   -18.2758 -18.2752 -18.2749 -18.2723 -18.2699 -18.2681 -18.2658 -18.2639
   -18.2627 -18.2588 -18.2583 -18.2528 -18.2461 -18.2408 -18.2294 -18.2272
   -18.2165 -18.2131 -18.2067 -18.2040 -18.2019 -18.1979 -18.1952 -18.1935
   -18.1901 -18.1898 -18.1893 -18.1878 -18.1827 -18.1815 -18.1802 -18.1799
   -18.1799 -18.1773 -18.1767 -18.1738 -18.1702 -18.1700 -18.1655 -18.1630
    -9.4571  -9.3922  -9.3133  -9.2777  -9.1827  -9.1336  -9.1032  -9.0458
    -9.0054  -8.9687  -8.9509  -8.9085  -8.8729  -8.8517  -8.8337  -8.8128
    -8.7554  -8.7440  -8.7300  -8.6962  -8.6545  -8.5758  -8.5442  -8.5072
    -5.2719  -5.2641  -5.2493  -5.2246  -5.2140  -5.2077  -5.1735  -5.1560
    -5.1537  -5.1522  -5.1459  -5.1404  -5.1383  -5.1349  -5.1306  -5.0565
    -5.0493  -5.0382  -5.0367  -5.0338  -5.0276  -5.0172  -5.0087  -5.0052
    -4.2336  -4.0098  -3.9575  -3.7041  -3.6824  -3.4332  -3.4117  -3.1224
    -0.6998  -0.6470  -0.5410  -0.4812  -0.3610  -0.2970  -0.2164  -0.1628
    -0.1298  -0.0595   0.1158   0.1424   0.3357   0.4283   0.4546   0.4758
     0.5247   0.5420   0.5798   0.6016   0.6213   0.6764   0.7078   0.7632
     0.7917   0.8981   0.9393   0.9735   0.9903   1.0270   1.0382   1.0787
     1.1045   1.1806   1.1971   1.2270   1.2579   1.2784   1.3201   1.3638
     1.3983   1.4368   1.4745   1.4896   1.5443   1.5592   1.5811   1.5967
     1.6316   1.6419   1.6628   1.6864   1.7161   1.7365   1.7682   1.7823
     1.8071   1.8232   1.8684   1.8832   1.9130   1.9426   1.9623   1.9910
     2.0279   2.0787   2.1120   2.1786   2.3173   2.4181   2.4827   2.5835

          k =-0.3750 0.3750 0.1250 (132616 PWs)   bands (ev):

   -18.4965 -18.4427 -18.3937 -18.3784 -18.3752 -18.2935 -18.2911 -18.2852
   -18.2758 -18.2752 -18.2749 -18.2723 -18.2699 -18.2681 -18.2658 -18.2639
   -18.2627 -18.2588 -18.2583 -18.2528 -18.2461 -18.2408 -18.2294 -18.2272
   -18.2165 -18.2131 -18.2067 -18.2040 -18.2019 -18.1979 -18.1952 -18.1935
   -18.1901 -18.1898 -18.1893 -18.1878 -18.1827 -18.1815 -18.1802 -18.1799
   -18.1799 -18.1773 -18.1767 -18.1738 -18.1702 -18.1700 -18.1655 -18.1630
    -9.4566  -9.3929  -9.3133  -9.2773  -9.1865  -9.1322  -9.0975  -9.0466
    -9.0056  -8.9705  -8.9523  -8.9109  -8.8715  -8.8471  -8.8396  -8.8108
    -8.7551  -8.7412  -8.7311  -8.6965  -8.6558  -8.5745  -8.5450  -8.5071
    -5.2719  -5.2641  -5.2493  -5.2245  -5.2139  -5.2078  -5.1735  -5.1560
    -5.1533  -5.1524  -5.1461  -5.1411  -5.1375  -5.1343  -5.1313  -5.0567
    -5.0493  -5.0381  -5.0367  -5.0337  -5.0276  -5.0173  -5.0087  -5.0051
    -4.2302  -4.0205  -3.9522  -3.7054  -3.6761  -3.4633  -3.3828  -3.1237
    -0.7021  -0.6493  -0.5506  -0.4706  -0.4020  -0.3155  -0.2062  -0.1509
    -0.0880  -0.0133   0.0925   0.2213   0.2804   0.3905   0.4450   0.4836
     0.5004   0.5475   0.5765   0.6030   0.6420   0.6663   0.7018   0.7431
     0.7867   0.9146   0.9422   0.9654   0.9879   1.0214   1.0499   1.0717
     1.1371   1.1621   1.1991   1.2172   1.2429   1.2791   1.3239   1.3606
     1.4166   1.4327   1.4842   1.5046   1.5422   1.5639   1.5812   1.6009
     1.6200   1.6379   1.6569   1.6855   1.7278   1.7455   1.7575   1.7834
     1.8073   1.8452   1.8681   1.8789   1.8997   1.9386   1.9670   1.9916
     2.0255   2.0565   2.1160   2.1816   2.3287   2.4142   2.4944   2.5788

          k =-0.3750-0.3750 0.3750 (132612 PWs)   bands (ev):

   -18.4965 -18.4427 -18.3937 -18.3784 -18.3752 -18.2935 -18.2911 -18.2852
   -18.2758 -18.2752 -18.2749 -18.2723 -18.2699 -18.2681 -18.2658 -18.2639
   -18.2627 -18.2588 -18.2583 -18.2528 -18.2461 -18.2408 -18.2294 -18.2272
   -18.2165 -18.2131 -18.2067 -18.2040 -18.2019 -18.1979 -18.1952 -18.1935
   -18.1901 -18.1898 -18.1893 -18.1878 -18.1827 -18.1815 -18.1802 -18.1799
   -18.1799 -18.1773 -18.1767 -18.1738 -18.1702 -18.1700 -18.1655 -18.1630
    -9.4456  -9.3804  -9.3344  -9.2660  -9.2100  -9.1584  -9.0909  -9.0462
    -8.9934  -8.9575  -8.9428  -8.9061  -8.8913  -8.8447  -8.8274  -8.8116
    -8.7575  -8.7419  -8.7300  -8.6894  -8.6639  -8.5712  -8.5411  -8.5159
    -5.2719  -5.2640  -5.2489  -5.2247  -5.2145  -5.2079  -5.1732  -5.1592
    -5.1537  -5.1516  -5.1461  -5.1426  -5.1362  -5.1339  -5.1285  -5.0559
    -5.0496  -5.0383  -5.0371  -5.0336  -5.0273  -5.0175  -5.0080  -5.0054
    -4.1111  -3.9393  -3.8326  -3.8099  -3.6223  -3.6111  -3.5360  -3.3236
    -0.4227  -0.3709  -0.3550  -0.3171  -0.2672  -0.2173  -0.1572  -0.1369
    -0.0408   0.0132   0.1009   0.2209   0.2991   0.3406   0.3900   0.4339
     0.4497   0.4797   0.5482   0.5678   0.5885   0.6192   0.6547   0.7019
     0.8342   0.8621   0.8877   0.9492   0.9500   0.9769   1.0253   1.0515
     1.0708   1.0994   1.1420   1.1730   1.2171   1.2455   1.2802   1.2914
     1.3632   1.4337   1.4729   1.4924   1.5184   1.5739   1.6006   1.6328
     1.6409   1.6748   1.7002   1.7297   1.7337   1.7474   1.7795   1.8076
     1.8219   1.8359   1.8606   1.8856   1.9114   1.9157   1.9504   1.9756
     1.9997   2.0525   2.0690   2.0791   2.1446   2.1684   2.2013   2.3219

          k =-0.3750 0.3750-0.3750 (132612 PWs)   bands (ev):

   -18.4965 -18.4427 -18.3937 -18.3784 -18.3752 -18.2935 -18.2911 -18.2852
   -18.2758 -18.2752 -18.2749 -18.2723 -18.2699 -18.2681 -18.2658 -18.2639
   -18.2627 -18.2588 -18.2583 -18.2528 -18.2461 -18.2408 -18.2294 -18.2272
   -18.2165 -18.2131 -18.2067 -18.2040 -18.2019 -18.1979 -18.1952 -18.1935
   -18.1901 -18.1898 -18.1893 -18.1878 -18.1827 -18.1815 -18.1802 -18.1799
   -18.1799 -18.1773 -18.1767 -18.1738 -18.1702 -18.1700 -18.1655 -18.1630
    -9.4461  -9.3778  -9.3357  -9.2664  -9.2140  -9.1554  -9.0893  -9.0459
    -8.9922  -8.9541  -8.9477  -8.9082  -8.8905  -8.8404  -8.8310  -8.8146
    -8.7549  -8.7382  -8.7331  -8.6892  -8.6644  -8.5709  -8.5415  -8.5158
    -5.2719  -5.2641  -5.2488  -5.2247  -5.2144  -5.2080  -5.1732  -5.1592
    -5.1535  -5.1516  -5.1462  -5.1426  -5.1361  -5.1338  -5.1286  -5.0560
    -5.0496  -5.0383  -5.0371  -5.0335  -5.0277  -5.0175  -5.0079  -5.0052
    -4.1151  -3.9046  -3.8653  -3.8116  -3.6475  -3.5702  -3.5505  -3.3206
    -0.4616  -0.3938  -0.3496  -0.3097  -0.2438  -0.2065  -0.1349  -0.1049
    -0.0345   0.0145   0.0899   0.2447   0.2570   0.3468   0.3618   0.3973
     0.4616   0.4909   0.5448   0.5603   0.5858   0.6256   0.6639   0.7212
     0.8012   0.8564   0.9100   0.9273   0.9647   0.9892   1.0306   1.0610
     1.0823   1.1118   1.1308   1.1684   1.1967   1.2386   1.2660   1.3037
     1.3581   1.4502   1.4775   1.4937   1.5486   1.5671   1.5908   1.6100
     1.6472   1.6756   1.6942   1.7310   1.7476   1.7623   1.7862   1.8089
     1.8175   1.8487   1.8571   1.8810   1.8934   1.9160   1.9453   1.9722
     1.9873   2.0329   2.0469   2.0905   2.1272   2.1586   2.2485   2.3420

          k = 0.3750-0.3750-0.3750 (132612 PWs)   bands (ev):

   -18.4965 -18.4427 -18.3937 -18.3784 -18.3752 -18.2935 -18.2911 -18.2852
   -18.2758 -18.2752 -18.2749 -18.2723 -18.2699 -18.2681 -18.2658 -18.2639
   -18.2627 -18.2588 -18.2583 -18.2528 -18.2461 -18.2408 -18.2294 -18.2272
   -18.2165 -18.2131 -18.2067 -18.2040 -18.2019 -18.1979 -18.1952 -18.1935
   -18.1901 -18.1898 -18.1893 -18.1878 -18.1827 -18.1815 -18.1802 -18.1799
   -18.1799 -18.1773 -18.1767 -18.1738 -18.1702 -18.1700 -18.1655 -18.1630
    -9.4452  -9.3808  -9.3337  -9.2682  -9.2108  -9.1565  -9.0869  -9.0475
    -8.9934  -8.9547  -8.9497  -8.9089  -8.8885  -8.8414  -8.8331  -8.8072
    -8.7568  -8.7400  -8.7308  -8.6912  -8.6643  -8.5705  -8.5414  -8.5160
    -5.2719  -5.2640  -5.2489  -5.2247  -5.2144  -5.2080  -5.1733  -5.1592
    -5.1534  -5.1518  -5.1464  -5.1427  -5.1357  -5.1338  -5.1287  -5.0560
    -5.0496  -5.0383  -5.0371  -5.0335  -5.0274  -5.0175  -5.0080  -5.0053
    -4.1057  -3.9481  -3.8431  -3.7888  -3.6530  -3.6109  -3.5062  -3.3293
    -0.4357  -0.4130  -0.3686  -0.3163  -0.2538  -0.1972  -0.1536  -0.1137
    -0.0105   0.0445   0.1052   0.2469   0.2886   0.3384   0.3569   0.3958
     0.4580   0.4987   0.5265   0.5395   0.5854   0.6286   0.6508   0.7138
     0.8189   0.8580   0.8994   0.9361   0.9504   0.9916   1.0067   1.0483
     1.0898   1.1198   1.1385   1.1652   1.1962   1.2382   1.2920   1.2988
     1.3645   1.4244   1.4538   1.5095   1.5421   1.5725   1.5893   1.6403
     1.6522   1.6738   1.7056   1.7297   1.7500   1.7578   1.7776   1.8055
     1.8216   1.8354   1.8608   1.8688   1.9022   1.9258   1.9509   1.9710
     1.9861   2.0294   2.0455   2.0955   2.1619   2.1800   2.2101   2.3226

     highest occupied level (ev):     3.1405

!    total energy              =   -2256.30671697 Ry
     estimated scf accuracy    <          3.1E-11 Ry

     The total energy is the sum of the following terms:
     one-electron contribution =    -995.05442723 Ry
     hartree contribution      =     625.59025658 Ry
     xc contribution           =    -647.52956582 Ry
     ewald contribution        =   -1239.31298051 Ry

     convergence has been achieved in  15 iterations

     Forces acting on atoms (cartesian axes, Ry/au):

     atom    1 type  1   force =     0.00065025    0.00025060   -0.00033560
     atom    2 type  2   force =     0.02334010   -0.00428498   -0.00477546
     atom    3 type  3   force =     0.01309082    0.00108445    0.00128064
     atom    4 type  3   force =    -0.00272285   -0.00873383   -0.00859954
     atom    5 type  3   force =    -0.00392894   -0.01497452   -0.00228888
     atom    6 type  1   force =    -0.00062730   -0.00279132   -0.00009177
     atom    7 type  2   force =     0.01282929    0.00098452    0.00102657
     atom    8 type  3   force =    -0.00044142   -0.00276593   -0.00184856
     atom    9 type  3   force =     0.00473469   -0.00029522    0.00737975
     atom   10 type  3   force =     0.00331108    0.00153733    0.00355758
     atom   11 type  1   force =     0.00444146    0.00137411   -0.00341085
     atom   12 type  2   force =     0.00633799    0.00934565   -0.02382530
     atom   13 type  3   force =     0.00425536   -0.00117725   -0.00207097
     atom   14 type  3   force =    -0.00323211    0.00322515    0.01396691
     atom   15 type  3   force =    -0.01076323    0.00743714    0.00568339
     atom   16 type  1   force =     0.00107384    0.00328976    0.00039347
     atom   17 type  2   force =     0.01322225   -0.01173672    0.00909627
     atom   18 type  3   force =     0.00286838   -0.00013459   -0.00168118
     atom   19 type  3   force =    -0.00639498    0.00422051    0.00040623
     atom   20 type  3   force =    -0.00657046    0.00119644    0.00466828
     atom   21 type  1   force =    -0.00052352    0.00784780    0.01118434
     atom   22 type  2   force =    -0.01017198   -0.01279483    0.00069579
     atom   23 type  3   force =    -0.01339574   -0.00758247   -0.00740512
     atom   24 type  3   force =     0.00019394    0.00175938    0.00082415
     atom   25 type  3   force =    -0.00161265   -0.01677082   -0.00054438
     atom   26 type  1   force =     0.00940516   -0.01271604   -0.00270331
     atom   27 type  2   force =    -0.01306498    0.00230659   -0.00391906
     atom   28 type  3   force =    -0.00635407   -0.00373332   -0.00618926
     atom   29 type  3   force =     0.00294127   -0.00154058    0.00241086
     atom   30 type  3   force =    -0.00228870   -0.01601481    0.00009848
     atom   31 type  1   force =    -0.00338398   -0.00106452    0.00082099
     atom   32 type  2   force =    -0.00127256    0.01801116    0.00727914
     atom   33 type  3   force =     0.00508609    0.00084518    0.00551623
     atom   34 type  3   force =     0.00140907   -0.00290379    0.00506438
     atom   35 type  3   force =    -0.00290095    0.00989055   -0.00260652
     atom   36 type  1   force =    -0.00218774    0.00093111    0.00117605
     atom   37 type  2   force =    -0.00277466    0.02593006   -0.00186339
     atom   38 type  3   force =     0.00007293    0.00672333   -0.00021871
     atom   39 type  3   force =    -0.01271036    0.00837860   -0.01258714
     atom   40 type  3   force =    -0.00194080    0.00544612    0.00443551

     Total force =     0.082459     Total SCF correction =     0.000024


     Computing stress (Cartesian axis) and pressure

          total   stress  (Ry/bohr**3)                   (kbar)     P=       -7.14
  -0.00005191  -0.00000034   0.00000004           -7.64       -0.05        0.01
  -0.00000034  -0.00004723   0.00000307           -0.05       -6.95        0.45
   0.00000004   0.00000307  -0.00004648            0.01        0.45       -6.84

 
     init_run     :     20.21s CPU     16.75s WALL (       1 calls)
     electrons    :    202.66s CPU    213.59s WALL (       1 calls)
     forces       :      8.87s CPU      3.95s WALL (       1 calls)
     stress       :     31.40s CPU     31.23s WALL (       1 calls)

     Called by init_run:
     wfcinit      :     12.30s CPU     13.68s WALL (       1 calls)
                                       13.68s GPU  (       1 calls)
     potinit      :      4.51s CPU      1.39s WALL (       1 calls)
     hinit0       :      2.82s CPU      0.99s WALL (       1 calls)

     Called by electrons:
     c_bands      :    121.01s CPU    170.86s WALL (      16 calls)
     sum_band     :     22.11s CPU     21.15s WALL (      16 calls)
                                       21.15s GPU  (      16 calls)
     v_of_rho     :     54.95s CPU     16.75s WALL (      16 calls)
     mix_rho      :      6.59s CPU      5.09s WALL (      16 calls)

     Called by c_bands:
     init_us_2    :      2.27s CPU      3.01s WALL (     280 calls)
                                        3.01s GPU  (     280 calls)
     cegterg      :     81.78s CPU    128.96s WALL (     128 calls)

     Called by *egterg:
     cdiaghg      :     13.99s CPU     25.84s WALL (     651 calls)
                                       25.80s GPU  (     651 calls)
     h_psi        :     55.32s CPU     74.32s WALL (     667 calls)
                                       73.88s GPU  (     667 calls)
     g_psi        :      0.00s CPU      0.36s WALL (     531 calls)
                                        0.36s GPU  (     531 calls)

     Called by h_psi:
     h_psi:calbec :      0.30s CPU     10.04s WALL (     667 calls)
                                       10.03s GPU  (     667 calls)
     vloc_psi     :     40.34s CPU     54.14s WALL (     667 calls)
                                       53.21s GPU  (     667 calls)
     add_vuspsi   :      0.34s CPU     10.07s WALL (     667 calls)
                                       10.06s GPU  (     667 calls)

     General routines
     calbec       :      0.30s CPU      0.38s WALL (     707 calls)
     fft          :     25.64s CPU      6.56s WALL (     185 calls)
                                        0.00s GPU  (       6 calls)
     ffts         :      2.65s CPU      0.67s WALL (      16 calls)
     fftw         :      0.58s CPU     62.73s WALL (   10530 calls)
                                       46.78s GPU  (   10530 calls)
 
     Parallel routines
 
     PWSCF        :   4m24.27s CPU   4m26.72s WALL

 
   This run was terminated on:  20: 4:59  22Apr2021            

=------------------------------------------------------------------------------=
   JOB DONE.
=------------------------------------------------------------------------------=
