
     Program PWSCF v.6.7MaX starts on 22Apr2021 at 21: 7:28 

     This program is part of the open-source Quantum ESPRESSO suite
     for quantum simulation of materials; please cite
         "P. Giannozzi et al., J. Phys.:Condens. Matter 21 395502 (2009);
         "P. Giannozzi et al., J. Phys.:Condens. Matter 29 465901 (2017);
         "P. Giannozzi et al., J. Chem. Phys. 152 154105 (2020);
          URL http://www.quantum-espresso.org", 
     in publications or presentations arising from this work. More details at
     http://www.quantum-espresso.org/quote

     Parallel version (MPI & OpenMP), running on      16 processor cores
     Number of MPI processes:                 4
     Threads/MPI process:                     4

     MPI processes distributed on     1 nodes
     K-points division:     npool     =       4
     Reading input from ESP_67.pwi
Warning: card &CELL ignored
Warning: card / ignored

     Current dimensions of program PWSCF are:
     Max number of different atomic species (ntypx) = 10
     Max number of k-points (npk) =  40000
     Max angular momentum in pseudopotentials (lmaxx) =  3
     Message from routine read_pp_mesh:
     mesh size missing, using the one in header
     Message from routine read_pp_mesh:
     mesh size missing, using the one in header
     Message from routine read_pp_mesh:
     mesh size missing, using the one in header

     Subspace diagonalization in iterative solution of the eigenvalue problem:
     a serial algorithm will be used

 
     G-vector sticks info
     --------------------
     sticks:   dense  smooth     PW     G-vecs:    dense   smooth      PW
     Sum       12589   12589   3289              1061107  1061107  140905
 
     Using Slab Decomposition
 


     bravais-lattice index     =            0
     lattice parameter (alat)  =      23.7585  a.u.
     unit-cell volume          =   13410.8736 (a.u.)^3
     number of atoms/cell      =           40
     number of atomic types    =            3
     number of electrons       =       352.00
     number of Kohn-Sham states=          176
     kinetic-energy cutoff     =      70.0000  Ry
     charge density cutoff     =     280.0000  Ry
     scf convergence threshold =      1.0E-10
     mixing beta               =       0.7000
     number of iterations used =            8  plain     mixing
     Exchange-correlation= PBESOL
                           (   1   4  10   8   0   0   0)

     GPU acceleration is ACTIVE.


     celldm(1)=  23.758500  celldm(2)=   0.000000  celldm(3)=   0.000000
     celldm(4)=   0.000000  celldm(5)=   0.000000  celldm(6)=   0.000000

     crystal axes: (cart. coord. in units of alat)
               a(1) = (   1.000000   0.000000   0.000000 )  
               a(2) = (   0.000000   1.000000   0.000000 )  
               a(3) = (   0.000000   0.000000   1.000000 )  

     reciprocal axes: (cart. coord. in units 2 pi/alat)
               b(1) = (  1.000000  0.000000  0.000000 )  
               b(2) = (  0.000000  1.000000  0.000000 )  
               b(3) = (  0.000000  0.000000  1.000000 )  


     PseudoPot. # 1 for Cs read from file:
     /m100/home/userexternal/lmonacel/espresso/pseudo/Cs-nc-pbesol.upf
     MD5 check sum: 9d2f2206a14dc5b3b3f3fbfae186bed4
     Pseudo is Norm-conserving + core correction, Zval =  9.0
     Generated using ONCVPSP code by D. R. Hamann
     Using radial grid of 2384 points,  8 beta functions with: 
                l(1) =   0
                l(2) =   0
                l(3) =   1
                l(4) =   1
                l(5) =   2
                l(6) =   2
                l(7) =   3
                l(8) =   3

     PseudoPot. # 2 for Sn read from file:
     /m100/home/userexternal/lmonacel/espresso/pseudo/Sn-nc-pbesol.upf
     MD5 check sum: c2995d571af40102bfea7461443d92cf
     Pseudo is Norm-conserving + core correction, Zval = 14.0
     Generated using ONCVPSP code by D. R. Hamann
     Using radial grid of 1628 points,  6 beta functions with: 
                l(1) =   0
                l(2) =   0
                l(3) =   1
                l(4) =   1
                l(5) =   2
                l(6) =   2

     PseudoPot. # 3 for I  read from file:
     /m100/home/userexternal/lmonacel/espresso/pseudo/I-nc-pbesol.upf
     MD5 check sum: 80ed5ceb2eb9c553cfb6760a299d9c5b
     Pseudo is Norm-conserving + core correction, Zval =  7.0
     Generated using ONCVPSP code by D. R. Hamann
     Using radial grid of 1182 points,  6 beta functions with: 
                l(1) =   0
                l(2) =   0
                l(3) =   1
                l(4) =   1
                l(5) =   2
                l(6) =   2

     atomic species   valence    mass     pseudopotential
        Cs             9.00   132.90545     Cs( 1.00)
        Sn            14.00   118.71000     Sn( 1.00)
        I              7.00   126.90447     I ( 1.00)

     No symmetry found



   Cartesian axes

     site n.     atom                  positions (alat units)
         1           Cs  tau(   1) = (   0.2626905   0.2656587   0.1959083  )
         2           Sn  tau(   2) = (   0.0173241   0.0156796   0.0026311  )
         3           I   tau(   3) = (   0.2677491   0.0129296   0.0050310  )
         4           I   tau(   4) = (   0.0000443   0.0165977   0.2523912  )
         5           I   tau(   5) = (   0.0012366   0.2517891  -0.0069043  )
         6           Cs  tau(   6) = (   0.2226644   0.2689219   0.7246772  )
         7           Sn  tau(   7) = (  -0.0016956  -0.0018082   0.4883870  )
         8           I   tau(   8) = (   0.2524582  -0.0041184   0.4855193  )
         9           I   tau(   9) = (  -0.0153267  -0.0010909   0.7539639  )
        10           I   tau(  10) = (  -0.0083245   0.2552364   0.5091611  )
        11           Cs  tau(  11) = (   0.2690342   0.7559691   0.2455764  )
        12           Sn  tau(  12) = (  -0.0082678   0.5053010   0.0014191  )
        13           I   tau(  13) = (   0.2454533   0.4954691  -0.0041841  )
        14           I   tau(  14) = (   0.0239290   0.4716010   0.2621234  )
        15           I   tau(  15) = (   0.0265928   0.7572849   0.0292559  )
        16           Cs  tau(  16) = (   0.2429799   0.7385460   0.7533350  )
        17           Sn  tau(  17) = (   0.0096584   0.4944497   0.5011642  )
        18           I   tau(  18) = (   0.2549919   0.5142937   0.4918025  )
        19           I   tau(  19) = (  -0.0160946   0.5146751   0.7535440  )
        20           I   tau(  20) = (   0.0004282   0.7587330   0.4937356  )
        21           Cs  tau(  21) = (   0.7740091   0.2580431   0.2464569  )
        22           Sn  tau(  22) = (   0.5164908  -0.0079415   0.0000006  )
        23           I   tau(  23) = (   0.7639510   0.0119940   0.0263466  )
        24           I   tau(  24) = (   0.4706427  -0.0524684   0.2560593  )
        25           I   tau(  25) = (   0.5019455   0.2477976  -0.0106246  )
        26           Cs  tau(  26) = (   0.7463823   0.2328503   0.7188162  )
        27           Sn  tau(  27) = (   0.4874552   0.0015108   0.4887085  )
        28           I   tau(  28) = (   0.7555818  -0.0053511   0.5088497  )
        29           I   tau(  29) = (   0.4592369  -0.0017307   0.7625662  )
        30           I   tau(  30) = (   0.5249210   0.2417292   0.4888799  )
        31           Cs  tau(  31) = (   0.7459614   0.7495063   0.2624204  )
        32           Sn  tau(  32) = (   0.4959591   0.4877485   0.0006817  )
        33           I   tau(  33) = (   0.7516601   0.4913744   0.0209195  )
        34           I   tau(  34) = (   0.4883515   0.5035596   0.2361234  )
        35           I   tau(  35) = (   0.5241183   0.7464388   0.0059048  )
        36           Cs  tau(  36) = (   0.7344308   0.7571461   0.8179370  )
        37           Sn  tau(  37) = (   0.4970181   0.4989227   0.5025009  )
        38           I   tau(  38) = (   0.7527787   0.5118549   0.4794083  )
        39           I   tau(  39) = (   0.4804296   0.4975394   0.7470124  )
        40           I   tau(  40) = (   0.4821381   0.7417017   0.5032066  )

     number of k points=    32
                       cart. coord. in units 2pi/alat
        k(    1) = (   0.1250000   0.1250000   0.1250000), wk =   0.0625000
        k(    2) = (   0.1250000   0.1250000   0.3750000), wk =   0.0625000
        k(    3) = (   0.1250000   0.3750000   0.3750000), wk =   0.0625000
        k(    4) = (   0.3750000   0.3750000   0.3750000), wk =   0.0625000
        k(    5) = (  -0.1250000  -0.1250000   0.1250000), wk =   0.0625000
        k(    6) = (  -0.1250000   0.1250000  -0.1250000), wk =   0.0625000
        k(    7) = (   0.1250000  -0.1250000  -0.1250000), wk =   0.0625000
        k(    8) = (  -0.1250000  -0.1250000   0.3750000), wk =   0.0625000
        k(    9) = (  -0.1250000   0.1250000  -0.3750000), wk =   0.0625000
        k(   10) = (   0.1250000  -0.1250000  -0.3750000), wk =   0.0625000
        k(   11) = (   0.3750000  -0.1250000   0.1250000), wk =   0.0625000
        k(   12) = (  -0.3750000  -0.1250000  -0.1250000), wk =   0.0625000
        k(   13) = (   0.3750000   0.1250000  -0.1250000), wk =   0.0625000
        k(   14) = (  -0.3750000   0.1250000   0.1250000), wk =   0.0625000
        k(   15) = (  -0.1250000   0.3750000   0.1250000), wk =   0.0625000
        k(   16) = (  -0.1250000  -0.3750000  -0.1250000), wk =   0.0625000
        k(   17) = (   0.1250000   0.3750000  -0.1250000), wk =   0.0625000
        k(   18) = (   0.1250000  -0.3750000   0.1250000), wk =   0.0625000
        k(   19) = (  -0.1250000  -0.3750000   0.3750000), wk =   0.0625000
        k(   20) = (  -0.1250000   0.3750000  -0.3750000), wk =   0.0625000
        k(   21) = (   0.1250000  -0.3750000  -0.3750000), wk =   0.0625000
        k(   22) = (   0.3750000   0.1250000  -0.3750000), wk =   0.0625000
        k(   23) = (  -0.3750000  -0.1250000  -0.3750000), wk =   0.0625000
        k(   24) = (   0.3750000  -0.1250000   0.3750000), wk =   0.0625000
        k(   25) = (  -0.3750000   0.1250000   0.3750000), wk =   0.0625000
        k(   26) = (   0.3750000  -0.3750000   0.1250000), wk =   0.0625000
        k(   27) = (  -0.3750000  -0.3750000  -0.1250000), wk =   0.0625000
        k(   28) = (   0.3750000   0.3750000  -0.1250000), wk =   0.0625000
        k(   29) = (  -0.3750000   0.3750000   0.1250000), wk =   0.0625000
        k(   30) = (  -0.3750000  -0.3750000   0.3750000), wk =   0.0625000
        k(   31) = (  -0.3750000   0.3750000  -0.3750000), wk =   0.0625000
        k(   32) = (   0.3750000  -0.3750000  -0.3750000), wk =   0.0625000

     Dense  grid:  1061107 G-vectors     FFT dimensions: ( 128, 128, 128)

     Estimated max dynamical RAM per process >       6.82 GB

     Estimated total dynamical RAM >      27.27 GB

     Initial potential from superposition of free atoms

     starting charge  351.69472, renormalised to  352.00000
     Starting wfcs are  208 randomized atomic wfcs

     total cpu time spent up to now is       17.7 secs

     Self-consistent Calculation

     iteration #  1     ecut=    70.00 Ry     beta= 0.70
     Davidson diagonalization with overlap
     ethr =  1.00E-02,  avg # of iterations =  2.0

     Threshold (ethr) on eigenvalues was too large:
     Diagonalizing with lowered threshold

     Davidson diagonalization with overlap
     ethr =  2.10E-04,  avg # of iterations =  4.0

     total cpu time spent up to now is       38.7 secs

     total energy              =   -2256.05928950 Ry
     estimated scf accuracy    <       0.63840958 Ry

     iteration #  2     ecut=    70.00 Ry     beta= 0.70
     Davidson diagonalization with overlap
     ethr =  1.81E-04,  avg # of iterations =  3.3

     total cpu time spent up to now is       51.4 secs

     total energy              =   -2256.26165741 Ry
     estimated scf accuracy    <       0.26090533 Ry

     iteration #  3     ecut=    70.00 Ry     beta= 0.70
     Davidson diagonalization with overlap
     ethr =  7.41E-05,  avg # of iterations =  2.4

     total cpu time spent up to now is       63.1 secs

     total energy              =   -2256.31032302 Ry
     estimated scf accuracy    <       0.01617006 Ry

     iteration #  4     ecut=    70.00 Ry     beta= 0.70
     Davidson diagonalization with overlap
     ethr =  4.59E-06,  avg # of iterations =  3.7

     total cpu time spent up to now is       77.1 secs

     total energy              =   -2256.31649626 Ry
     estimated scf accuracy    <       0.00639134 Ry

     iteration #  5     ecut=    70.00 Ry     beta= 0.70
     Davidson diagonalization with overlap
     ethr =  1.82E-06,  avg # of iterations =  3.7

     total cpu time spent up to now is       89.8 secs

     total energy              =   -2256.31767958 Ry
     estimated scf accuracy    <       0.00104271 Ry

     iteration #  6     ecut=    70.00 Ry     beta= 0.70
     Davidson diagonalization with overlap
     ethr =  2.96E-07,  avg # of iterations =  3.4

     total cpu time spent up to now is      102.3 secs

     total energy              =   -2256.31784284 Ry
     estimated scf accuracy    <       0.00016575 Ry

     iteration #  7     ecut=    70.00 Ry     beta= 0.70
     Davidson diagonalization with overlap
     ethr =  4.71E-08,  avg # of iterations =  4.0

     total cpu time spent up to now is      115.9 secs

     total energy              =   -2256.31790211 Ry
     estimated scf accuracy    <       0.00001341 Ry

     iteration #  8     ecut=    70.00 Ry     beta= 0.70
     Davidson diagonalization with overlap
     ethr =  3.81E-09,  avg # of iterations =  5.1

     total cpu time spent up to now is      130.3 secs

     total energy              =   -2256.31790823 Ry
     estimated scf accuracy    <       0.00000420 Ry

     iteration #  9     ecut=    70.00 Ry     beta= 0.70
     Davidson diagonalization with overlap
     ethr =  1.19E-09,  avg # of iterations =  4.0

     total cpu time spent up to now is      143.9 secs

     total energy              =   -2256.31790955 Ry
     estimated scf accuracy    <       0.00000064 Ry

     iteration # 10     ecut=    70.00 Ry     beta= 0.70
     Davidson diagonalization with overlap
     ethr =  1.83E-10,  avg # of iterations =  3.1

     total cpu time spent up to now is      157.5 secs

     total energy              =   -2256.31790978 Ry
     estimated scf accuracy    <       0.00000010 Ry

     iteration # 11     ecut=    70.00 Ry     beta= 0.70
     Davidson diagonalization with overlap
     ethr =  2.85E-11,  avg # of iterations =  5.4

     total cpu time spent up to now is      173.4 secs

     total energy              =   -2256.31790984 Ry
     estimated scf accuracy    <       0.00000004 Ry

     iteration # 12     ecut=    70.00 Ry     beta= 0.70
     Davidson diagonalization with overlap
     ethr =  1.04E-11,  avg # of iterations =  3.9

     total cpu time spent up to now is      186.8 secs

     total energy              =   -2256.31790985 Ry
     estimated scf accuracy    <          7.6E-09 Ry

     iteration # 13     ecut=    70.00 Ry     beta= 0.70
     Davidson diagonalization with overlap
     ethr =  2.15E-12,  avg # of iterations =  3.5

     total cpu time spent up to now is      200.7 secs

     total energy              =   -2256.31790986 Ry
     estimated scf accuracy    <          7.1E-10 Ry

     iteration # 14     ecut=    70.00 Ry     beta= 0.70
     Davidson diagonalization with overlap
     ethr =  2.00E-13,  avg # of iterations =  6.6

     total cpu time spent up to now is      219.5 secs

     total energy              =   -2256.31790986 Ry
     estimated scf accuracy    <          2.6E-10 Ry

     iteration # 15     ecut=    70.00 Ry     beta= 0.70
     Davidson diagonalization with overlap
     ethr =  1.00E-13,  avg # of iterations =  2.5

     total cpu time spent up to now is      231.2 secs

     End of self-consistent calculation

          k = 0.1250 0.1250 0.1250 (132670 PWs)   bands (ev):

   -18.5166 -18.4608 -18.4309 -18.4079 -18.3767 -18.3734 -18.3403 -18.3387
   -18.3316 -18.3261 -18.3215 -18.2971 -18.2815 -18.2797 -18.2728 -18.2692
   -18.2663 -18.2660 -18.2584 -18.2561 -18.2532 -18.2496 -18.2260 -18.2195
   -18.2158 -18.2112 -18.2092 -18.2058 -18.2047 -18.2034 -18.2028 -18.2007
   -18.2007 -18.1947 -18.1913 -18.1854 -18.1833 -18.1803 -18.1754 -18.1674
   -18.1607 -18.1530 -18.1293 -18.1128 -18.1046 -18.0933 -18.0903 -18.0848
    -9.4078  -9.2721  -9.2509  -9.2277  -9.1143  -9.0939  -9.0595  -9.0267
    -9.0005  -8.9543  -8.9354  -8.9223  -8.9132  -8.8831  -8.8595  -8.8222
    -8.7861  -8.7687  -8.7166  -8.6862  -8.6312  -8.5941  -8.5568  -8.5393
    -5.2823  -5.2770  -5.2669  -5.2497  -5.2398  -5.2266  -5.1998  -5.1939
    -5.1887  -5.1692  -5.1651  -5.1565  -5.1477  -5.1441  -5.1422  -5.1339
    -5.1324  -5.1267  -5.0926  -5.0850  -5.0683  -4.9484  -4.9209  -4.9113
    -4.4733  -3.9626  -3.9245  -3.8945  -3.4008  -3.3620  -3.3072  -2.7145
    -0.7641  -0.7169  -0.6747  -0.6406  -0.5929  -0.5670  -0.5045  -0.4776
    -0.4590  -0.4177  -0.2955  -0.1688   0.4531   0.4914   0.5022   0.6335
     0.6511   0.6641   0.7435   0.7725   0.8034   0.9012   0.9303   0.9779
     0.9978   1.0440   1.0858   1.1164   1.1328   1.1621   1.1824   1.2034
     1.2203   1.2591   1.2869   1.3027   1.3347   1.3420   1.3594   1.3734
     1.3980   1.4293   1.4509   1.4627   1.4981   1.5121   1.5268   1.5452
     1.5761   1.5879   1.6057   1.6389   1.6541   1.6844   1.7038   1.7381
     1.7630   1.8228   1.8576   1.9657   2.0143   2.0410   2.0551   2.1202
     2.1651   2.1838   2.2359   2.3042   2.6312   2.7260   2.7979   3.1622

          k = 0.1250 0.1250 0.3750 (132608 PWs)   bands (ev):

   -18.5166 -18.4608 -18.4309 -18.4079 -18.3767 -18.3734 -18.3403 -18.3387
   -18.3316 -18.3261 -18.3215 -18.2971 -18.2815 -18.2797 -18.2728 -18.2692
   -18.2663 -18.2660 -18.2584 -18.2561 -18.2532 -18.2496 -18.2260 -18.2195
   -18.2158 -18.2112 -18.2092 -18.2058 -18.2047 -18.2034 -18.2028 -18.2007
   -18.2007 -18.1947 -18.1913 -18.1854 -18.1833 -18.1803 -18.1754 -18.1674
   -18.1607 -18.1530 -18.1293 -18.1128 -18.1046 -18.0933 -18.0903 -18.0848
    -9.3888  -9.2879  -9.2516  -9.2127  -9.1354  -9.1166  -9.0634  -9.0305
    -9.0093  -8.9578  -8.9357  -8.9179  -8.8967  -8.8701  -8.8436  -8.8156
    -8.7939  -8.7587  -8.7139  -8.6780  -8.6331  -8.6052  -8.5662  -8.5397
    -5.2820  -5.2769  -5.2669  -5.2495  -5.2396  -5.2265  -5.1996  -5.1936
    -5.1885  -5.1689  -5.1651  -5.1559  -5.1480  -5.1444  -5.1427  -5.1344
    -5.1326  -5.1268  -5.0929  -5.0852  -5.0684  -4.9489  -4.9209  -4.9114
    -4.3509  -4.1123  -3.8057  -3.7832  -3.5634  -3.5368  -3.1955  -2.9326
    -0.7462  -0.7031  -0.6233  -0.5854  -0.5712  -0.5099  -0.4880  -0.3101
    -0.1558  -0.0851  -0.0083   0.0952   0.4328   0.4563   0.4902   0.5231
     0.5751   0.6056   0.6380   0.6649   0.6900   0.7358   0.7642   0.7921
     0.8911   0.9123   0.9994   1.0490   1.0742   1.1334   1.1537   1.1808
     1.2165   1.2358   1.2656   1.2980   1.3251   1.3483   1.3601   1.3852
     1.4142   1.4292   1.4542   1.4670   1.5015   1.5278   1.5482   1.5666
     1.6026   1.6344   1.6414   1.6760   1.7028   1.7183   1.7376   1.7712
     1.7894   1.8270   1.8586   1.8985   1.9412   1.9738   2.0022   2.0302
     2.1172   2.1740   2.2295   2.3109   2.4480   2.4659   2.7696   2.9277

          k = 0.1250 0.3750 0.3750 (132616 PWs)   bands (ev):

   -18.5166 -18.4608 -18.4309 -18.4079 -18.3767 -18.3734 -18.3403 -18.3387
   -18.3316 -18.3261 -18.3215 -18.2971 -18.2814 -18.2798 -18.2728 -18.2692
   -18.2663 -18.2660 -18.2584 -18.2561 -18.2532 -18.2496 -18.2260 -18.2195
   -18.2158 -18.2112 -18.2092 -18.2058 -18.2047 -18.2034 -18.2028 -18.2007
   -18.2007 -18.1947 -18.1913 -18.1854 -18.1833 -18.1803 -18.1754 -18.1674
   -18.1607 -18.1530 -18.1293 -18.1128 -18.1046 -18.0933 -18.0903 -18.0848
    -9.3627  -9.2970  -9.2613  -9.2065  -9.1634  -9.1263  -9.0801  -9.0396
    -8.9925  -8.9426  -8.9350  -8.9048  -8.8910  -8.8664  -8.8464  -8.8148
    -8.7916  -8.7538  -8.7185  -8.6791  -8.6244  -8.6076  -8.5659  -8.5513
    -5.2819  -5.2765  -5.2667  -5.2498  -5.2399  -5.2266  -5.1994  -5.1938
    -5.1881  -5.1692  -5.1653  -5.1562  -5.1479  -5.1439  -5.1423  -5.1344
    -5.1314  -5.1284  -5.0928  -5.0854  -5.0683  -4.9487  -4.9209  -4.9116
    -4.2256  -3.9940  -3.9659  -3.7385  -3.6597  -3.4347  -3.3750  -3.1396
    -0.7051  -0.6276  -0.5657  -0.4790  -0.3447  -0.2684  -0.1761  -0.1117
    -0.0753  -0.0520   0.0871   0.1873   0.3273   0.4113   0.4436   0.4990
     0.5412   0.5537   0.5700   0.5992   0.6401   0.6480   0.7086   0.7221
     0.8002   0.8710   0.9175   0.9557   1.0005   1.0483   1.0902   1.1224
     1.1698   1.2090   1.2157   1.2568   1.2835   1.3039   1.3167   1.3619
     1.3928   1.4082   1.4538   1.4984   1.5218   1.5626   1.5799   1.5944
     1.6379   1.6693   1.6851   1.7054   1.7277   1.7450   1.7668   1.8115
     1.8263   1.8395   1.8723   1.8982   1.9069   1.9288   1.9628   1.9747
     2.0020   2.0782   2.1032   2.2092   2.2956   2.4267   2.5303   2.6308

          k = 0.3750 0.3750 0.3750 (132612 PWs)   bands (ev):

   -18.5166 -18.4608 -18.4309 -18.4079 -18.3767 -18.3734 -18.3403 -18.3387
   -18.3316 -18.3261 -18.3215 -18.2971 -18.2814 -18.2798 -18.2728 -18.2692
   -18.2663 -18.2660 -18.2584 -18.2561 -18.2532 -18.2496 -18.2260 -18.2194
   -18.2158 -18.2112 -18.2092 -18.2058 -18.2047 -18.2034 -18.2028 -18.2007
   -18.2007 -18.1947 -18.1913 -18.1854 -18.1833 -18.1803 -18.1754 -18.1674
   -18.1607 -18.1530 -18.1293 -18.1128 -18.1046 -18.0933 -18.0903 -18.0848
    -9.3384  -9.2903  -9.2567  -9.2319  -9.1811  -9.1366  -9.1045  -9.0386
    -8.9703  -8.9398  -8.9308  -8.8980  -8.8934  -8.8626  -8.8427  -8.8077
    -8.7960  -8.7585  -8.7134  -8.6682  -8.6242  -8.6077  -8.5709  -8.5600
    -5.2819  -5.2768  -5.2667  -5.2496  -5.2398  -5.2263  -5.1996  -5.1940
    -5.1884  -5.1695  -5.1651  -5.1565  -5.1479  -5.1438  -5.1420  -5.1342
    -5.1314  -5.1283  -5.0928  -5.0850  -5.0683  -4.9484  -4.9209  -4.9114
    -4.0933  -3.9072  -3.8442  -3.8034  -3.6594  -3.6038  -3.5322  -3.3332
    -0.4086  -0.3617  -0.3106  -0.2974  -0.2491  -0.1685  -0.1203  -0.1034
    -0.0372   0.0336   0.0753   0.2489   0.2965   0.3516   0.3868   0.4017
     0.4561   0.4938   0.5311   0.5605   0.5982   0.6247   0.6418   0.6874
     0.8505   0.8712   0.9128   0.9548   0.9846   0.9976   1.0338   1.0574
     1.0863   1.1232   1.1385   1.1723   1.2026   1.2500   1.2755   1.2986
     1.3842   1.4179   1.4874   1.5132   1.5400   1.5689   1.5873   1.6414
     1.6674   1.6816   1.7120   1.7339   1.7626   1.7723   1.7791   1.7963
     1.8263   1.8441   1.8866   1.8906   1.9112   1.9230   1.9519   1.9656
     1.9852   2.0236   2.0555   2.0686   2.1364   2.1959   2.2188   2.2956

          k =-0.1250-0.1250 0.1250 (132670 PWs)   bands (ev):

   -18.5166 -18.4608 -18.4309 -18.4079 -18.3767 -18.3734 -18.3403 -18.3387
   -18.3316 -18.3261 -18.3215 -18.2971 -18.2815 -18.2797 -18.2728 -18.2692
   -18.2663 -18.2660 -18.2584 -18.2561 -18.2532 -18.2496 -18.2260 -18.2195
   -18.2158 -18.2112 -18.2092 -18.2058 -18.2047 -18.2034 -18.2028 -18.2007
   -18.2007 -18.1947 -18.1913 -18.1854 -18.1833 -18.1803 -18.1754 -18.1674
   -18.1607 -18.1530 -18.1293 -18.1128 -18.1046 -18.0933 -18.0903 -18.0848
    -9.4077  -9.2719  -9.2529  -9.2260  -9.1145  -9.0941  -9.0639  -9.0172
    -8.9980  -8.9576  -8.9435  -8.9207  -8.9140  -8.8834  -8.8580  -8.8184
    -8.7881  -8.7666  -8.7179  -8.6874  -8.6303  -8.5941  -8.5566  -8.5395
    -5.2822  -5.2769  -5.2670  -5.2497  -5.2396  -5.2267  -5.1997  -5.1940
    -5.1888  -5.1694  -5.1650  -5.1561  -5.1477  -5.1441  -5.1423  -5.1340
    -5.1324  -5.1267  -5.0927  -5.0850  -5.0682  -4.9484  -4.9209  -4.9113
    -4.4731  -3.9621  -3.9348  -3.8847  -3.4092  -3.3459  -3.3144  -2.7156
    -0.7661  -0.7378  -0.6715  -0.6108  -0.5896  -0.5269  -0.5155  -0.4993
    -0.4560  -0.4386  -0.2954  -0.1786   0.4556   0.4919   0.5044   0.6306
     0.6366   0.6755   0.7495   0.7714   0.8068   0.9219   0.9336   0.9765
     1.0031   1.0322   1.0819   1.1146   1.1383   1.1465   1.1827   1.1919
     1.2399   1.2553   1.2677   1.2943   1.3185   1.3370   1.3727   1.3817
     1.4077   1.4157   1.4379   1.4949   1.5006   1.5215   1.5354   1.5527
     1.5680   1.5930   1.6077   1.6226   1.6530   1.6901   1.7093   1.7474
     1.7676   1.8186   1.8459   1.9583   1.9950   2.0286   2.0786   2.1288
     2.1612   2.1854   2.2389   2.2945   2.6418   2.7469   2.7692   3.1528

          k =-0.1250 0.1250-0.1250 (132670 PWs)   bands (ev):

   -18.5166 -18.4608 -18.4309 -18.4079 -18.3767 -18.3734 -18.3403 -18.3387
   -18.3316 -18.3261 -18.3215 -18.2971 -18.2815 -18.2797 -18.2728 -18.2692
   -18.2663 -18.2660 -18.2584 -18.2561 -18.2532 -18.2496 -18.2260 -18.2195
   -18.2158 -18.2112 -18.2092 -18.2058 -18.2047 -18.2034 -18.2028 -18.2007
   -18.2007 -18.1947 -18.1913 -18.1854 -18.1833 -18.1803 -18.1754 -18.1674
   -18.1607 -18.1530 -18.1293 -18.1128 -18.1046 -18.0933 -18.0903 -18.0848
    -9.4072  -9.2791  -9.2462  -9.2242  -9.1215  -9.0850  -9.0636  -9.0261
    -9.0003  -8.9521  -8.9410  -8.9220  -8.9090  -8.8843  -8.8612  -8.8151
    -8.7939  -8.7661  -8.7178  -8.6856  -8.6310  -8.5939  -8.5571  -8.5390
    -5.2822  -5.2766  -5.2672  -5.2499  -5.2397  -5.2265  -5.1999  -5.1940
    -5.1883  -5.1693  -5.1652  -5.1566  -5.1477  -5.1442  -5.1419  -5.1340
    -5.1324  -5.1268  -5.0927  -5.0849  -5.0682  -4.9483  -4.9209  -4.9114
    -4.4726  -3.9755  -3.9185  -3.8875  -3.3974  -3.3767  -3.2955  -2.7157
    -0.7799  -0.7044  -0.6797  -0.6272  -0.5873  -0.5488  -0.5302  -0.4966
    -0.4599  -0.3866  -0.3006  -0.1821   0.4539   0.4879   0.5052   0.6221
     0.6463   0.6803   0.7445   0.7756   0.7986   0.8947   0.9532   0.9692
     1.0190   1.0608   1.0819   1.1036   1.1346   1.1659   1.1784   1.1950
     1.2151   1.2563   1.2827   1.2900   1.3133   1.3295   1.3683   1.3756
     1.3917   1.4194   1.4711   1.4828   1.4905   1.5124   1.5456   1.5543
     1.5839   1.5871   1.6103   1.6262   1.6584   1.6750   1.7036   1.7474
     1.7723   1.8013   1.8581   1.9654   1.9944   2.0202   2.0701   2.1357
     2.1530   2.2008   2.2326   2.3043   2.6466   2.7342   2.7813   3.1479

          k = 0.1250-0.1250-0.1250 (132670 PWs)   bands (ev):

   -18.5166 -18.4608 -18.4309 -18.4079 -18.3767 -18.3734 -18.3403 -18.3387
   -18.3316 -18.3261 -18.3215 -18.2971 -18.2815 -18.2797 -18.2728 -18.2692
   -18.2663 -18.2660 -18.2584 -18.2561 -18.2532 -18.2496 -18.2260 -18.2195
   -18.2158 -18.2112 -18.2092 -18.2058 -18.2047 -18.2034 -18.2028 -18.2007
   -18.2007 -18.1947 -18.1913 -18.1854 -18.1833 -18.1803 -18.1754 -18.1674
   -18.1607 -18.1530 -18.1293 -18.1128 -18.1046 -18.0933 -18.0903 -18.0848
    -9.4073  -9.2792  -9.2446  -9.2264  -9.1142  -9.0900  -9.0695  -9.0207
    -8.9986  -8.9559  -8.9379  -8.9214  -8.9128  -8.8862  -8.8598  -8.8166
    -8.7881  -8.7671  -8.7172  -8.6883  -8.6300  -8.5945  -8.5567  -8.5392
    -5.2822  -5.2766  -5.2671  -5.2499  -5.2399  -5.2264  -5.1999  -5.1940
    -5.1883  -5.1695  -5.1652  -5.1561  -5.1477  -5.1440  -5.1424  -5.1341
    -5.1323  -5.1267  -5.0926  -5.0849  -5.0683  -4.9483  -4.9209  -4.9113
    -4.4735  -3.9586  -3.9300  -3.8938  -3.4020  -3.3397  -3.3269  -2.7153
    -0.7843  -0.7169  -0.6648  -0.6263  -0.5700  -0.5559  -0.5135  -0.4886
    -0.4597  -0.4207  -0.3017  -0.1828   0.4559   0.4904   0.5050   0.6202
     0.6425   0.6816   0.7547   0.7655   0.8106   0.8857   0.9386   0.9673
     1.0178   1.0534   1.0749   1.1117   1.1414   1.1582   1.1939   1.2111
     1.2324   1.2495   1.2574   1.2792   1.3211   1.3310   1.3538   1.3725
     1.4082   1.4469   1.4573   1.4663   1.4893   1.5138   1.5269   1.5630
     1.5682   1.5998   1.6096   1.6378   1.6529   1.6902   1.7149   1.7525
     1.7776   1.8071   1.8531   1.9721   1.9973   2.0430   2.0604   2.1086
     2.1534   2.1957   2.2290   2.3031   2.6382   2.7537   2.7743   3.1300

          k =-0.1250-0.1250 0.3750 (132608 PWs)   bands (ev):

   -18.5166 -18.4608 -18.4309 -18.4079 -18.3767 -18.3734 -18.3403 -18.3387
   -18.3316 -18.3261 -18.3215 -18.2971 -18.2815 -18.2797 -18.2728 -18.2692
   -18.2663 -18.2660 -18.2584 -18.2561 -18.2532 -18.2496 -18.2260 -18.2195
   -18.2158 -18.2112 -18.2092 -18.2058 -18.2047 -18.2034 -18.2028 -18.2007
   -18.2007 -18.1947 -18.1913 -18.1854 -18.1833 -18.1803 -18.1754 -18.1674
   -18.1607 -18.1530 -18.1293 -18.1128 -18.1046 -18.0933 -18.0903 -18.0848
    -9.3886  -9.2887  -9.2516  -9.2115  -9.1402  -9.1113  -9.0686  -9.0221
    -9.0087  -8.9602  -8.9404  -8.9189  -8.8945  -8.8720  -8.8431  -8.8133
    -8.7927  -8.7581  -8.7151  -8.6803  -8.6310  -8.6057  -8.5660  -8.5399
    -5.2819  -5.2769  -5.2670  -5.2496  -5.2395  -5.2266  -5.1995  -5.1937
    -5.1885  -5.1691  -5.1651  -5.1554  -5.1480  -5.1444  -5.1429  -5.1344
    -5.1326  -5.1268  -5.0930  -5.0851  -5.0684  -4.9489  -4.9209  -4.9114
    -4.3501  -4.1143  -3.8095  -3.7768  -3.5696  -3.5321  -3.1935  -2.9348
    -0.7453  -0.7089  -0.6330  -0.5653  -0.5519  -0.5251  -0.4877  -0.3221
    -0.1262  -0.0920  -0.0269   0.0751   0.4234   0.4712   0.4950   0.5446
     0.5696   0.5796   0.6380   0.6791   0.6949   0.7429   0.7689   0.8070
     0.8857   0.9049   1.0124   1.0426   1.0621   1.1094   1.1583   1.1793
     1.2134   1.2466   1.2631   1.2875   1.3246   1.3505   1.3597   1.3770
     1.4136   1.4314   1.4534   1.4794   1.5120   1.5330   1.5502   1.5765
     1.6038   1.6177   1.6408   1.6636   1.7100   1.7321   1.7514   1.7803
     1.7999   1.8090   1.8572   1.8918   1.9277   1.9769   2.0054   2.0331
     2.0891   2.1865   2.2407   2.2965   2.4430   2.4804   2.7649   2.9242

          k =-0.1250 0.1250-0.3750 (132608 PWs)   bands (ev):

   -18.5166 -18.4608 -18.4309 -18.4079 -18.3767 -18.3734 -18.3403 -18.3387
   -18.3316 -18.3261 -18.3215 -18.2971 -18.2815 -18.2797 -18.2728 -18.2692
   -18.2663 -18.2660 -18.2584 -18.2561 -18.2532 -18.2496 -18.2260 -18.2195
   -18.2158 -18.2112 -18.2092 -18.2058 -18.2047 -18.2034 -18.2028 -18.2007
   -18.2007 -18.1947 -18.1913 -18.1854 -18.1833 -18.1803 -18.1754 -18.1674
   -18.1607 -18.1530 -18.1293 -18.1128 -18.1046 -18.0933 -18.0903 -18.0848
    -9.3880  -9.2915  -9.2519  -9.2064  -9.1450  -9.1085  -9.0624  -9.0325
    -9.0131  -8.9555  -8.9352  -8.9174  -8.8932  -8.8734  -8.8440  -8.8141
    -8.7948  -8.7599  -8.7136  -8.6781  -8.6329  -8.6049  -8.5664  -8.5396
    -5.2819  -5.2766  -5.2671  -5.2498  -5.2396  -5.2264  -5.1997  -5.1937
    -5.1881  -5.1688  -5.1652  -5.1559  -5.1480  -5.1445  -5.1424  -5.1345
    -5.1326  -5.1269  -5.0930  -5.0850  -5.0684  -4.9488  -4.9209  -4.9115
    -4.3492  -4.1168  -3.8102  -3.7729  -3.5656  -3.5397  -3.1910  -2.9351
    -0.7649  -0.6754  -0.6334  -0.5844  -0.5523  -0.5202  -0.4980  -0.3089
    -0.1481  -0.0853  -0.0108   0.0836   0.4334   0.4510   0.4879   0.5393
     0.5792   0.5983   0.6236   0.6615   0.6885   0.7533   0.7773   0.7966
     0.8685   0.9326   1.0018   1.0626   1.0848   1.1009   1.1444   1.1937
     1.2262   1.2489   1.2725   1.2805   1.3140   1.3239   1.3352   1.3796
     1.4178   1.4199   1.4568   1.4808   1.4922   1.5413   1.5796   1.5860
     1.6028   1.6274   1.6542   1.6722   1.7071   1.7196   1.7426   1.7650
     1.7956   1.8201   1.8442   1.8890   1.9240   1.9692   2.0122   2.0336
     2.1107   2.1668   2.2481   2.3100   2.4475   2.4714   2.7623   2.9269

          k = 0.1250-0.1250-0.3750 (132608 PWs)   bands (ev):

   -18.5166 -18.4608 -18.4309 -18.4079 -18.3767 -18.3734 -18.3403 -18.3387
   -18.3316 -18.3261 -18.3215 -18.2971 -18.2815 -18.2797 -18.2728 -18.2692
   -18.2663 -18.2660 -18.2584 -18.2561 -18.2532 -18.2496 -18.2260 -18.2195
   -18.2158 -18.2112 -18.2092 -18.2058 -18.2047 -18.2034 -18.2028 -18.2007
   -18.2007 -18.1947 -18.1913 -18.1854 -18.1833 -18.1803 -18.1754 -18.1674
   -18.1607 -18.1530 -18.1293 -18.1128 -18.1046 -18.0933 -18.0903 -18.0848
    -9.3882  -9.2908  -9.2531  -9.2068  -9.1392  -9.1125  -9.0674  -9.0284
    -9.0104  -8.9590  -8.9339  -8.9178  -8.8941  -8.8733  -8.8471  -8.8132
    -8.7910  -8.7588  -8.7137  -8.6811  -8.6310  -8.6061  -8.5659  -8.5397
    -5.2820  -5.2766  -5.2671  -5.2498  -5.2397  -5.2264  -5.1997  -5.1937
    -5.1882  -5.1691  -5.1652  -5.1554  -5.1481  -5.1443  -5.1430  -5.1346
    -5.1325  -5.1268  -5.0928  -5.0850  -5.0685  -4.9488  -4.9210  -4.9114
    -4.3517  -4.1105  -3.8161  -3.7764  -3.5635  -3.5315  -3.1984  -2.9328
    -0.7693  -0.6819  -0.6315  -0.5746  -0.5568  -0.5219  -0.4765  -0.3100
    -0.1444  -0.0900  -0.0292   0.0791   0.4240   0.4745   0.4938   0.5297
     0.5530   0.6001   0.6466   0.6669   0.7059   0.7403   0.7529   0.7934
     0.8726   0.9282   1.0183   1.0611   1.0927   1.0999   1.1471   1.1771
     1.2253   1.2329   1.2606   1.2803   1.3263   1.3454   1.3646   1.3866
     1.4089   1.4292   1.4550   1.4748   1.5021   1.5270   1.5500   1.5675
     1.5978   1.6285   1.6515   1.6871   1.7069   1.7205   1.7506   1.7745
     1.7911   1.8089   1.8699   1.9082   1.9391   1.9805   1.9974   2.0316
     2.0844   2.1780   2.2310   2.3033   2.4493   2.4750   2.7687   2.9119

          k = 0.3750-0.1250 0.1250 (132608 PWs)   bands (ev):

   -18.5166 -18.4608 -18.4309 -18.4079 -18.3767 -18.3734 -18.3403 -18.3387
   -18.3316 -18.3261 -18.3215 -18.2971 -18.2815 -18.2797 -18.2728 -18.2692
   -18.2663 -18.2660 -18.2584 -18.2561 -18.2532 -18.2496 -18.2260 -18.2194
   -18.2158 -18.2112 -18.2092 -18.2058 -18.2047 -18.2034 -18.2028 -18.2007
   -18.2007 -18.1947 -18.1913 -18.1854 -18.1833 -18.1803 -18.1754 -18.1674
   -18.1607 -18.1530 -18.1293 -18.1128 -18.1046 -18.0933 -18.0903 -18.0848
    -9.3751  -9.3242  -9.2293  -9.2033  -9.1608  -9.1143  -9.0606  -9.0145
    -8.9967  -8.9413  -8.9362  -8.9224  -8.9099  -8.8822  -8.8524  -8.8219
    -8.7825  -8.7657  -8.7212  -8.6721  -8.6261  -8.5958  -8.5642  -8.5497
    -5.2820  -5.2762  -5.2668  -5.2502  -5.2399  -5.2266  -5.1997  -5.1940
    -5.1877  -5.1692  -5.1657  -5.1562  -5.1478  -5.1442  -5.1421  -5.1341
    -5.1325  -5.1269  -5.0929  -5.0850  -5.0684  -4.9483  -4.9210  -4.9113
    -4.3371  -4.1095  -3.8217  -3.7686  -3.5751  -3.5285  -3.2230  -2.9497
    -0.7280  -0.6551  -0.6236  -0.5785  -0.5428  -0.4985  -0.4415  -0.3182
    -0.1830  -0.0787  -0.0150   0.0640   0.4105   0.4605   0.5052   0.5435
     0.5486   0.5764   0.6398   0.6593   0.7035   0.7224   0.7764   0.7968
     0.8834   0.9176   1.0169   1.0597   1.0952   1.1258   1.1672   1.1735
     1.2097   1.2461   1.2688   1.3177   1.3248   1.3470   1.3618   1.3883
     1.4108   1.4420   1.4649   1.4875   1.5028   1.5247   1.5459   1.5586
     1.5893   1.6179   1.6480   1.6620   1.6864   1.6936   1.7313   1.7601
     1.7911   1.8100   1.8607   1.9052   1.9248   1.9483   2.0100   2.0735
     2.1074   2.1428   2.2200   2.2647   2.4034   2.4429   2.7468   2.8654

          k =-0.3750-0.1250-0.1250 (132608 PWs)   bands (ev):

   -18.5166 -18.4608 -18.4309 -18.4079 -18.3767 -18.3734 -18.3403 -18.3387
   -18.3316 -18.3261 -18.3215 -18.2971 -18.2815 -18.2797 -18.2728 -18.2692
   -18.2663 -18.2660 -18.2584 -18.2561 -18.2532 -18.2496 -18.2260 -18.2194
   -18.2158 -18.2112 -18.2092 -18.2058 -18.2047 -18.2034 -18.2028 -18.2007
   -18.2007 -18.1947 -18.1913 -18.1854 -18.1833 -18.1803 -18.1754 -18.1674
   -18.1607 -18.1530 -18.1293 -18.1128 -18.1046 -18.0933 -18.0903 -18.0848
    -9.3768  -9.3207  -9.2251  -9.2138  -9.1562  -9.1157  -9.0538  -9.0211
    -8.9962  -8.9421  -8.9350  -8.9235  -8.9115  -8.8801  -8.8515  -8.8221
    -8.7791  -8.7698  -8.7198  -8.6720  -8.6269  -8.5958  -8.5638  -8.5500
    -5.2820  -5.2765  -5.2666  -5.2498  -5.2399  -5.2267  -5.1995  -5.1939
    -5.1881  -5.1692  -5.1656  -5.1561  -5.1477  -5.1441  -5.1424  -5.1340
    -5.1325  -5.1269  -5.0928  -5.0852  -5.0684  -4.9483  -4.9210  -4.9113
    -4.3381  -4.1085  -3.8028  -3.7880  -3.5625  -3.5419  -3.2234  -2.9479
    -0.7302  -0.6607  -0.6127  -0.5724  -0.5471  -0.4787  -0.4732  -0.3073
    -0.1954  -0.0769  -0.0180   0.0786   0.4100   0.4819   0.5017   0.5303
     0.5437   0.5828   0.6357   0.6612   0.6974   0.7265   0.7578   0.8058
     0.8887   0.9130   1.0171   1.0575   1.0797   1.1251   1.1522   1.1736
     1.2153   1.2658   1.2858   1.3104   1.3379   1.3549   1.3726   1.3831
     1.4007   1.4307   1.4611   1.4791   1.4988   1.5314   1.5346   1.5504
     1.5942   1.6194   1.6461   1.6785   1.6848   1.6999   1.7265   1.7520
     1.7892   1.8246   1.8708   1.9034   1.9179   1.9643   2.0121   2.0721
     2.1053   2.1389   2.2156   2.2590   2.3822   2.4509   2.7442   2.8832

          k = 0.3750 0.1250-0.1250 (132608 PWs)   bands (ev):

   -18.5166 -18.4608 -18.4309 -18.4079 -18.3767 -18.3734 -18.3403 -18.3387
   -18.3316 -18.3261 -18.3215 -18.2971 -18.2815 -18.2797 -18.2728 -18.2692
   -18.2663 -18.2660 -18.2584 -18.2561 -18.2532 -18.2496 -18.2260 -18.2194
   -18.2158 -18.2112 -18.2092 -18.2058 -18.2047 -18.2034 -18.2028 -18.2007
   -18.2007 -18.1947 -18.1913 -18.1854 -18.1833 -18.1803 -18.1754 -18.1674
   -18.1607 -18.1530 -18.1293 -18.1128 -18.1046 -18.0933 -18.0903 -18.0848
    -9.3767  -9.3207  -9.2280  -9.2124  -9.1487  -9.1239  -9.0563  -9.0153
    -8.9912  -8.9456  -8.9393  -8.9207  -8.9136  -8.8826  -8.8486  -8.8234
    -8.7783  -8.7670  -8.7211  -8.6738  -8.6254  -8.5959  -8.5636  -8.5503
    -5.2820  -5.2765  -5.2667  -5.2499  -5.2398  -5.2268  -5.1994  -5.1941
    -5.1882  -5.1694  -5.1655  -5.1556  -5.1477  -5.1442  -5.1426  -5.1341
    -5.1324  -5.1269  -5.0929  -5.0852  -5.0683  -4.9483  -4.9210  -4.9113
    -4.3385  -4.1057  -3.8262  -3.7683  -3.5798  -3.5189  -3.2275  -2.9486
    -0.7275  -0.6625  -0.6127  -0.5792  -0.5506  -0.4828  -0.4487  -0.3024
    -0.1774  -0.1163  -0.0302   0.0800   0.4186   0.4920   0.5094   0.5354
     0.5437   0.5816   0.6205   0.6697   0.6822   0.7303   0.7540   0.8100
     0.8849   0.9171   1.0265   1.0520   1.0977   1.1289   1.1415   1.1847
     1.2161   1.2481   1.2689   1.3098   1.3327   1.3517   1.3644   1.3798
     1.4158   1.4398   1.4623   1.4934   1.5018   1.5302   1.5364   1.5671
     1.5928   1.6116   1.6470   1.6530   1.6974   1.7012   1.7198   1.7730
     1.7984   1.8210   1.8667   1.8885   1.9071   1.9565   1.9986   2.0874
     2.1141   2.1366   2.1976   2.2711   2.3891   2.4573   2.7441   2.8713

          k =-0.3750 0.1250 0.1250 (132608 PWs)   bands (ev):

   -18.5166 -18.4608 -18.4309 -18.4079 -18.3767 -18.3734 -18.3403 -18.3387
   -18.3316 -18.3261 -18.3215 -18.2971 -18.2815 -18.2797 -18.2728 -18.2692
   -18.2663 -18.2660 -18.2584 -18.2561 -18.2532 -18.2496 -18.2260 -18.2194
   -18.2158 -18.2112 -18.2092 -18.2058 -18.2047 -18.2034 -18.2028 -18.2007
   -18.2007 -18.1947 -18.1913 -18.1854 -18.1833 -18.1803 -18.1754 -18.1674
   -18.1607 -18.1530 -18.1293 -18.1128 -18.1046 -18.0933 -18.0903 -18.0848
    -9.3752  -9.3246  -9.2246  -9.2094  -9.1592  -9.1123  -9.0622  -9.0132
    -8.9961  -8.9439  -8.9373  -8.9219  -8.9113  -8.8844  -8.8502  -8.8188
    -8.7799  -8.7675  -8.7210  -8.6744  -8.6252  -8.5962  -8.5640  -8.5497
    -5.2820  -5.2762  -5.2668  -5.2501  -5.2400  -5.2265  -5.1997  -5.1940
    -5.1877  -5.1694  -5.1657  -5.1556  -5.1478  -5.1441  -5.1427  -5.1342
    -5.1324  -5.1269  -5.0927  -5.0850  -5.0684  -4.9483  -4.9210  -4.9113
    -4.3386  -4.1076  -3.8071  -3.7864  -3.5664  -3.5332  -3.2255  -2.9489
    -0.7317  -0.6517  -0.6351  -0.5612  -0.5510  -0.4758  -0.4568  -0.3011
    -0.1688  -0.1164  -0.0284   0.0672   0.4216   0.4790   0.5048   0.5351
     0.5554   0.5760   0.6229   0.6688   0.6885   0.7237   0.7704   0.8075
     0.8747   0.9159   1.0148   1.0695   1.1013   1.1216   1.1475   1.1761
     1.2198   1.2423   1.2726   1.3091   1.3265   1.3434   1.3649   1.3892
     1.4262   1.4390   1.4575   1.4841   1.4987   1.5263   1.5458   1.5533
     1.6064   1.6176   1.6410   1.6648   1.6866   1.7057   1.7321   1.7769
     1.8062   1.8179   1.8651   1.8925   1.9075   1.9630   2.0023   2.0822
     2.0918   2.1287   2.2323   2.2539   2.3802   2.4632   2.7506   2.8551

          k =-0.1250 0.3750 0.1250 (132608 PWs)   bands (ev):

   -18.5166 -18.4608 -18.4309 -18.4079 -18.3767 -18.3734 -18.3403 -18.3387
   -18.3316 -18.3261 -18.3215 -18.2971 -18.2814 -18.2798 -18.2728 -18.2692
   -18.2663 -18.2660 -18.2584 -18.2561 -18.2532 -18.2496 -18.2260 -18.2194
   -18.2158 -18.2112 -18.2092 -18.2058 -18.2047 -18.2034 -18.2028 -18.2007
   -18.2007 -18.1947 -18.1913 -18.1854 -18.1833 -18.1803 -18.1754 -18.1674
   -18.1607 -18.1530 -18.1293 -18.1128 -18.1046 -18.0933 -18.0903 -18.0848
    -9.3792  -9.3151  -9.2344  -9.2070  -9.1562  -9.1106  -9.0702  -9.0287
    -8.9767  -8.9482  -8.9275  -8.9202  -8.9113  -8.8760  -8.8588  -8.8164
    -8.7981  -8.7486  -8.7222  -8.6868  -8.6226  -8.6003  -8.5572  -8.5502
    -5.2821  -5.2762  -5.2668  -5.2501  -5.2399  -5.2264  -5.1997  -5.1938
    -5.1878  -5.1697  -5.1653  -5.1564  -5.1477  -5.1437  -5.1424  -5.1341
    -5.1314  -5.1284  -5.0928  -5.0851  -5.0683  -4.9482  -4.9210  -4.9115
    -4.3440  -4.1049  -3.8186  -3.7740  -3.5759  -3.5210  -3.2218  -2.9485
    -0.7408  -0.6418  -0.6203  -0.5757  -0.5204  -0.4978  -0.4300  -0.3840
    -0.1631  -0.0995  -0.0402   0.0972   0.4194   0.4781   0.4923   0.5240
     0.5591   0.5828   0.6126   0.6537   0.7028   0.7287   0.7751   0.8064
     0.8784   0.9182   1.0026   1.0675   1.0953   1.1163   1.1565   1.1888
     1.2171   1.2412   1.2662   1.2761   1.3234   1.3304   1.3598   1.3821
     1.4352   1.4572   1.4624   1.5000   1.5267   1.5548   1.5672   1.5753
     1.5937   1.6109   1.6439   1.6622   1.6851   1.7065   1.7280   1.7620
     1.8257   1.8385   1.8670   1.8790   1.9047   1.9438   1.9808   2.0217
     2.0898   2.1361   2.2337   2.2930   2.4144   2.4698   2.7428   2.8429

          k =-0.1250-0.3750-0.1250 (132608 PWs)   bands (ev):

   -18.5166 -18.4608 -18.4309 -18.4079 -18.3767 -18.3734 -18.3403 -18.3387
   -18.3316 -18.3261 -18.3215 -18.2971 -18.2814 -18.2798 -18.2728 -18.2692
   -18.2663 -18.2660 -18.2584 -18.2561 -18.2532 -18.2496 -18.2260 -18.2194
   -18.2158 -18.2112 -18.2092 -18.2058 -18.2047 -18.2034 -18.2028 -18.2007
   -18.2007 -18.1947 -18.1913 -18.1854 -18.1833 -18.1803 -18.1754 -18.1674
   -18.1607 -18.1530 -18.1293 -18.1128 -18.1046 -18.0933 -18.0903 -18.0848
    -9.3805  -9.3114  -9.2353  -9.2110  -9.1512  -9.1159  -9.0681  -9.0306
    -8.9699  -8.9476  -8.9290  -8.9240  -8.9107  -8.8753  -8.8567  -8.8225
    -8.7953  -8.7490  -8.7222  -8.6853  -8.6232  -8.6000  -8.5569  -8.5508
    -5.2821  -5.2765  -5.2666  -5.2498  -5.2398  -5.2266  -5.1995  -5.1938
    -5.1882  -5.1695  -5.1651  -5.1568  -5.1476  -5.1438  -5.1422  -5.1340
    -5.1314  -5.1284  -5.0928  -5.0853  -5.0683  -4.9483  -4.9209  -4.9116
    -4.3441  -4.1031  -3.8247  -3.7675  -3.5842  -3.5150  -3.2223  -2.9472
    -0.7156  -0.6644  -0.6496  -0.5715  -0.5185  -0.4771  -0.4283  -0.3893
    -0.1674  -0.0947  -0.0475   0.1148   0.4225   0.4742   0.5014   0.5199
     0.5514   0.5986   0.6197   0.6396   0.6964   0.7045   0.7826   0.8133
     0.8845   0.9152   0.9999   1.0615   1.0928   1.1104   1.1631   1.1829
     1.2242   1.2522   1.2710   1.2902   1.3309   1.3529   1.3800   1.3898
     1.4172   1.4443   1.4661   1.4786   1.5133   1.5329   1.5540   1.5669
     1.5956   1.6222   1.6369   1.6625   1.6948   1.7020   1.7209   1.7599
     1.8280   1.8398   1.8598   1.8834   1.8965   1.9485   1.9876   2.0345
     2.0916   2.1236   2.2509   2.2899   2.4110   2.4621   2.7428   2.8700

          k = 0.1250 0.3750-0.1250 (132608 PWs)   bands (ev):

   -18.5166 -18.4608 -18.4309 -18.4079 -18.3767 -18.3734 -18.3403 -18.3387
   -18.3316 -18.3261 -18.3215 -18.2971 -18.2814 -18.2798 -18.2728 -18.2692
   -18.2663 -18.2660 -18.2584 -18.2561 -18.2532 -18.2496 -18.2260 -18.2194
   -18.2158 -18.2112 -18.2092 -18.2058 -18.2047 -18.2034 -18.2027 -18.2007
   -18.2007 -18.1947 -18.1913 -18.1854 -18.1833 -18.1803 -18.1754 -18.1674
   -18.1607 -18.1530 -18.1293 -18.1128 -18.1046 -18.0933 -18.0903 -18.0848
    -9.3803  -9.3118  -9.2333  -9.2150  -9.1478  -9.1180  -9.0678  -9.0244
    -8.9754  -8.9482  -8.9363  -8.9202  -8.9116  -8.8661  -8.8616  -8.8199
    -8.7974  -8.7479  -8.7229  -8.6862  -8.6228  -8.5998  -8.5570  -8.5507
    -5.2821  -5.2765  -5.2667  -5.2498  -5.2397  -5.2267  -5.1994  -5.1939
    -5.1883  -5.1697  -5.1651  -5.1563  -5.1476  -5.1438  -5.1422  -5.1340
    -5.1314  -5.1285  -5.0929  -5.0853  -5.0682  -4.9483  -4.9209  -4.9115
    -4.3426  -4.1081  -3.8173  -3.7694  -3.5801  -3.5235  -3.2177  -2.9497
    -0.7374  -0.6454  -0.6342  -0.5587  -0.5246  -0.4878  -0.4367  -0.3760
    -0.1844  -0.1091  -0.0383   0.1077   0.4317   0.4871   0.5020   0.5271
     0.5542   0.5891   0.6204   0.6521   0.6800   0.7135   0.7763   0.8160
     0.8800   0.9238   1.0040   1.0480   1.0884   1.1170   1.1635   1.1771
     1.2207   1.2511   1.2684   1.2808   1.3101   1.3472   1.3756   1.3825
     1.4162   1.4541   1.4640   1.5027   1.5285   1.5587   1.5632   1.5749
     1.5914   1.6118   1.6348   1.6615   1.6870   1.7216   1.7349   1.7539
     1.7981   1.8459   1.8547   1.8708   1.8994   1.9408   1.9922   2.0343
     2.0830   2.1631   2.2306   2.2923   2.4012   2.4754   2.7240   2.8695

          k = 0.1250-0.3750 0.1250 (132608 PWs)   bands (ev):

   -18.5166 -18.4608 -18.4309 -18.4079 -18.3767 -18.3734 -18.3403 -18.3387
   -18.3316 -18.3261 -18.3215 -18.2971 -18.2814 -18.2798 -18.2728 -18.2692
   -18.2663 -18.2660 -18.2584 -18.2561 -18.2532 -18.2496 -18.2260 -18.2194
   -18.2158 -18.2112 -18.2092 -18.2058 -18.2047 -18.2034 -18.2028 -18.2007
   -18.2007 -18.1947 -18.1913 -18.1854 -18.1833 -18.1803 -18.1754 -18.1674
   -18.1607 -18.1530 -18.1293 -18.1128 -18.1046 -18.0933 -18.0903 -18.0848
    -9.3790  -9.3156  -9.2341  -9.2055  -9.1567  -9.1165  -9.0629  -9.0339
    -8.9712  -8.9423  -8.9361  -8.9234  -8.9087  -8.8688  -8.8637  -8.8160
    -8.8011  -8.7483  -8.7229  -8.6853  -8.6227  -8.5998  -8.5580  -8.5498
    -5.2821  -5.2762  -5.2669  -5.2501  -5.2398  -5.2264  -5.1997  -5.1939
    -5.1878  -5.1695  -5.1653  -5.1568  -5.1477  -5.1439  -5.1419  -5.1340
    -5.1314  -5.1285  -5.0929  -5.0851  -5.0683  -4.9482  -4.9209  -4.9116
    -4.3419  -4.1091  -3.8200  -3.7655  -3.5835  -3.5220  -3.2158  -2.9504
    -0.7226  -0.6704  -0.6484  -0.5452  -0.5251  -0.4903  -0.4242  -0.3723
    -0.1781  -0.1110  -0.0278   0.0895   0.4255   0.4729   0.5167   0.5268
     0.5556   0.5730   0.6112   0.6712   0.6921   0.7176   0.7851   0.8032
     0.8809   0.9243   1.0081   1.0506   1.0852   1.1324   1.1488   1.1790
     1.2052   1.2480   1.2695   1.2972   1.3322   1.3503   1.3651   1.4031
     1.4144   1.4460   1.4525   1.4931   1.5117   1.5437   1.5683   1.5809
     1.6042   1.6218   1.6331   1.6475   1.6718   1.7127   1.7403   1.7605
     1.8052   1.8400   1.8544   1.8742   1.9064   1.9487   1.9733   2.0301
     2.0968   2.1537   2.2306   2.2931   2.4122   2.4757   2.7390   2.8604

          k =-0.1250-0.3750 0.3750 (132616 PWs)   bands (ev):

   -18.5166 -18.4608 -18.4309 -18.4079 -18.3767 -18.3734 -18.3403 -18.3387
   -18.3316 -18.3261 -18.3215 -18.2971 -18.2814 -18.2798 -18.2728 -18.2692
   -18.2663 -18.2660 -18.2584 -18.2561 -18.2532 -18.2496 -18.2260 -18.2195
   -18.2158 -18.2112 -18.2092 -18.2058 -18.2047 -18.2034 -18.2028 -18.2007
   -18.2007 -18.1947 -18.1913 -18.1854 -18.1833 -18.1803 -18.1754 -18.1674
   -18.1607 -18.1530 -18.1293 -18.1128 -18.1046 -18.0933 -18.0903 -18.0848
    -9.3622  -9.2984  -9.2596  -9.2090  -9.1617  -9.1270  -9.0793  -9.0319
    -9.0011  -8.9409  -8.9372  -8.9090  -8.8868  -8.8627  -8.8504  -8.8116
    -8.7924  -8.7538  -8.7186  -8.6804  -8.6236  -8.6075  -8.5660  -8.5512
    -5.2819  -5.2765  -5.2668  -5.2498  -5.2398  -5.2267  -5.1993  -5.1939
    -5.1882  -5.1694  -5.1653  -5.1557  -5.1479  -5.1440  -5.1423  -5.1344
    -5.1314  -5.1284  -5.0929  -5.0854  -5.0682  -4.9487  -4.9209  -4.9116
    -4.2204  -4.0349  -3.9250  -3.7406  -3.6577  -3.4646  -3.3430  -3.1469
    -0.7107  -0.6214  -0.5634  -0.4710  -0.3385  -0.2416  -0.2039  -0.1618
    -0.0842  -0.0027   0.0732   0.1538   0.3492   0.4390   0.4781   0.4977
     0.5276   0.5551   0.5722   0.5987   0.6269   0.6523   0.6839   0.7217
     0.8096   0.8807   0.9168   0.9720   0.9770   1.0180   1.0848   1.1463
     1.1643   1.1932   1.2296   1.2571   1.2726   1.3084   1.3273   1.3573
     1.3790   1.4295   1.4541   1.4885   1.5207   1.5515   1.5795   1.6190
     1.6367   1.6785   1.6939   1.7085   1.7337   1.7516   1.7861   1.8090
     1.8181   1.8466   1.8521   1.8668   1.8897   1.9355   1.9700   1.9996
     2.0002   2.0600   2.1336   2.1902   2.2851   2.4567   2.4871   2.6416

          k =-0.1250 0.3750-0.3750 (132616 PWs)   bands (ev):

   -18.5166 -18.4608 -18.4309 -18.4079 -18.3767 -18.3734 -18.3403 -18.3387
   -18.3316 -18.3261 -18.3215 -18.2971 -18.2814 -18.2798 -18.2728 -18.2692
   -18.2663 -18.2660 -18.2584 -18.2561 -18.2532 -18.2496 -18.2260 -18.2195
   -18.2158 -18.2112 -18.2092 -18.2058 -18.2047 -18.2034 -18.2028 -18.2007
   -18.2007 -18.1947 -18.1913 -18.1854 -18.1833 -18.1803 -18.1754 -18.1674
   -18.1607 -18.1530 -18.1293 -18.1128 -18.1046 -18.0933 -18.0903 -18.0848
    -9.3605  -9.3043  -9.2569  -9.2012  -9.1698  -9.1250  -9.0776  -9.0390
    -9.0001  -8.9401  -8.9286  -8.9093  -8.8867  -8.8684  -8.8479  -8.8138
    -8.7928  -8.7546  -8.7178  -8.6794  -8.6241  -8.6072  -8.5664  -8.5509
    -5.2819  -5.2762  -5.2668  -5.2500  -5.2399  -5.2264  -5.1995  -5.1939
    -5.1878  -5.1692  -5.1654  -5.1563  -5.1479  -5.1440  -5.1419  -5.1345
    -5.1314  -5.1285  -5.0929  -5.0852  -5.0683  -4.9486  -4.9209  -4.9117
    -4.2191  -4.0376  -3.9240  -3.7425  -3.6554  -3.4660  -3.3412  -3.1471
    -0.7116  -0.6264  -0.5622  -0.4790  -0.3271  -0.2435  -0.2031  -0.1570
    -0.0715  -0.0035   0.0808   0.1340   0.3461   0.4244   0.4771   0.4894
     0.5213   0.5554   0.5737   0.5954   0.6367   0.6697   0.6877   0.7310
     0.8025   0.8846   0.9151   0.9575   0.9922   1.0358   1.0888   1.1415
     1.1753   1.1916   1.2279   1.2486   1.2685   1.2810   1.3288   1.3691
     1.3828   1.4199   1.4418   1.5000   1.5125   1.5722   1.5919   1.6150
     1.6458   1.6708   1.6842   1.7073   1.7254   1.7461   1.7796   1.8087
     1.8254   1.8316   1.8461   1.8755   1.8994   1.9386   1.9634   1.9861
     2.0205   2.0537   2.1181   2.2129   2.2824   2.4686   2.4905   2.6370

          k = 0.1250-0.3750-0.3750 (132616 PWs)   bands (ev):

   -18.5166 -18.4608 -18.4309 -18.4079 -18.3767 -18.3734 -18.3403 -18.3387
   -18.3316 -18.3261 -18.3215 -18.2971 -18.2814 -18.2798 -18.2728 -18.2692
   -18.2663 -18.2660 -18.2584 -18.2561 -18.2532 -18.2496 -18.2260 -18.2195
   -18.2158 -18.2112 -18.2092 -18.2058 -18.2047 -18.2034 -18.2028 -18.2007
   -18.2007 -18.1947 -18.1913 -18.1854 -18.1833 -18.1803 -18.1754 -18.1674
   -18.1607 -18.1530 -18.1293 -18.1128 -18.1046 -18.0933 -18.0903 -18.0848
    -9.3610  -9.3024  -9.2596  -9.2004  -9.1706  -9.1181  -9.0853  -9.0326
    -9.0048  -8.9442  -8.9266  -8.9048  -8.8888  -8.8684  -8.8511  -8.8114
    -8.7906  -8.7547  -8.7175  -8.6808  -8.6238  -8.6079  -8.5656  -8.5512
    -5.2819  -5.2762  -5.2668  -5.2500  -5.2400  -5.2264  -5.1996  -5.1938
    -5.1878  -5.1695  -5.1655  -5.1557  -5.1479  -5.1439  -5.1424  -5.1346
    -5.1314  -5.1284  -5.0928  -5.0852  -5.0683  -4.9486  -4.9209  -4.9116
    -4.2259  -3.9948  -3.9664  -3.7390  -3.6555  -3.4332  -3.3780  -3.1405
    -0.7178  -0.6129  -0.5659  -0.4689  -0.3523  -0.2623  -0.1741  -0.1168
    -0.0663  -0.0492   0.0759   0.1646   0.3204   0.4126   0.4509   0.4915
     0.5376   0.5655   0.5816   0.6033   0.6360   0.6546   0.6802   0.7258
     0.8090   0.8862   0.9113   0.9644   1.0138   1.0426   1.0864   1.1187
     1.1635   1.1969   1.2294   1.2365   1.2767   1.2967   1.3286   1.3591
     1.3968   1.4244   1.4580   1.4920   1.5089   1.5523   1.5960   1.6178
     1.6433   1.6562   1.6884   1.7117   1.7270   1.7500   1.7695   1.8080
     1.8246   1.8489   1.8694   1.8964   1.9062   1.9346   1.9640   1.9769
     2.0078   2.0581   2.1036   2.2053   2.2932   2.4267   2.5193   2.6271

          k = 0.3750 0.1250-0.3750 (132616 PWs)   bands (ev):

   -18.5166 -18.4608 -18.4309 -18.4079 -18.3767 -18.3734 -18.3403 -18.3387
   -18.3316 -18.3261 -18.3215 -18.2971 -18.2815 -18.2797 -18.2728 -18.2692
   -18.2663 -18.2660 -18.2584 -18.2561 -18.2532 -18.2496 -18.2260 -18.2194
   -18.2158 -18.2112 -18.2092 -18.2058 -18.2047 -18.2034 -18.2028 -18.2007
   -18.2007 -18.1947 -18.1913 -18.1854 -18.1833 -18.1803 -18.1754 -18.1674
   -18.1607 -18.1530 -18.1293 -18.1128 -18.1046 -18.0933 -18.0903 -18.0848
    -9.3591  -9.3043  -9.2610  -9.2062  -9.1574  -9.1315  -9.0757  -9.0234
    -9.0028  -8.9456  -8.9368  -8.9179  -8.8924  -8.8721  -8.8322  -8.8087
    -8.7934  -8.7650  -8.7111  -8.6709  -8.6276  -8.6062  -8.5702  -8.5509
    -5.2818  -5.2766  -5.2667  -5.2498  -5.2396  -5.2267  -5.1993  -5.1939
    -5.1881  -5.1696  -5.1655  -5.1560  -5.1479  -5.1443  -5.1424  -5.1339
    -5.1324  -5.1267  -5.0930  -5.0851  -5.0685  -4.9488  -4.9210  -4.9113
    -4.2170  -4.0111  -3.9568  -3.7308  -3.6605  -3.4431  -3.3797  -3.1395
    -0.7066  -0.5948  -0.5526  -0.5243  -0.3507  -0.2138  -0.1807  -0.1275
    -0.0813  -0.0259   0.0554   0.1449   0.3163   0.4366   0.4722   0.5079
     0.5147   0.5395   0.5627   0.6111   0.6381   0.6702   0.7121   0.7440
     0.8229   0.8906   0.9229   0.9628   0.9998   1.0404   1.0634   1.1153
     1.1351   1.1575   1.2100   1.2593   1.2885   1.3019   1.3507   1.3708
     1.4154   1.4312   1.4766   1.4995   1.5216   1.5551   1.5789   1.5937
     1.6182   1.6462   1.6633   1.7016   1.7169   1.7394   1.7598   1.7933
     1.8295   1.8561   1.8671   1.9008   1.9117   1.9311   1.9589   1.9926
     2.0304   2.0947   2.1303   2.2071   2.2838   2.4327   2.4768   2.5971

          k =-0.3750-0.1250-0.3750 (132616 PWs)   bands (ev):

   -18.5166 -18.4608 -18.4309 -18.4079 -18.3767 -18.3734 -18.3403 -18.3387
   -18.3316 -18.3261 -18.3215 -18.2971 -18.2815 -18.2797 -18.2728 -18.2692
   -18.2663 -18.2660 -18.2584 -18.2561 -18.2532 -18.2496 -18.2260 -18.2194
   -18.2158 -18.2112 -18.2092 -18.2058 -18.2047 -18.2034 -18.2028 -18.2007
   -18.2007 -18.1947 -18.1913 -18.1854 -18.1833 -18.1803 -18.1754 -18.1674
   -18.1607 -18.1530 -18.1293 -18.1128 -18.1046 -18.0933 -18.0903 -18.0848
    -9.3593  -9.3047  -9.2585  -9.2085  -9.1612  -9.1261  -9.0729  -9.0278
    -9.0073  -8.9426  -8.9348  -8.9156  -8.8964  -8.8674  -8.8337  -8.8077
    -8.7950  -8.7677  -8.7099  -8.6684  -8.6302  -8.6056  -8.5704  -8.5506
    -5.2819  -5.2766  -5.2667  -5.2497  -5.2398  -5.2266  -5.1993  -5.1938
    -5.1880  -5.1694  -5.1656  -5.1565  -5.1479  -5.1443  -5.1423  -5.1338
    -5.1324  -5.1267  -5.0929  -5.0852  -5.0686  -4.9488  -4.9210  -4.9113
    -4.2156  -4.0299  -3.9341  -3.7347  -3.6534  -3.4763  -3.3546  -3.1396
    -0.7097  -0.5972  -0.5575  -0.5082  -0.3348  -0.2643  -0.1962  -0.1337
    -0.0619   0.0179   0.0392   0.1909   0.3145   0.4069   0.4630   0.4822
     0.5148   0.5495   0.5677   0.6264   0.6428   0.6776   0.7134   0.7187
     0.8135   0.8895   0.9266   0.9710   0.9900   1.0142   1.1023   1.1068
     1.1458   1.1669   1.2113   1.2518   1.2935   1.3048   1.3377   1.3773
     1.4231   1.4509   1.4731   1.4846   1.5048   1.5469   1.5666   1.5913
     1.6273   1.6494   1.6791   1.6907   1.7041   1.7455   1.7694   1.7857
     1.8200   1.8289   1.8800   1.9068   1.9260   1.9486   1.9628   2.0043
     2.0301   2.0924   2.1224   2.2042   2.2869   2.4109   2.4881   2.6037

          k = 0.3750-0.1250 0.3750 (132616 PWs)   bands (ev):

   -18.5166 -18.4608 -18.4309 -18.4079 -18.3767 -18.3734 -18.3403 -18.3387
   -18.3316 -18.3261 -18.3215 -18.2971 -18.2815 -18.2797 -18.2728 -18.2692
   -18.2663 -18.2660 -18.2584 -18.2561 -18.2532 -18.2496 -18.2260 -18.2194
   -18.2158 -18.2112 -18.2092 -18.2058 -18.2047 -18.2034 -18.2028 -18.2007
   -18.2007 -18.1947 -18.1913 -18.1854 -18.1833 -18.1803 -18.1754 -18.1674
   -18.1607 -18.1530 -18.1293 -18.1128 -18.1046 -18.0933 -18.0903 -18.0848
    -9.3571  -9.3094  -9.2598  -9.1983  -9.1683  -9.1235  -9.0781  -9.0222
    -9.0108  -8.9434  -8.9318  -8.9135  -8.8963  -8.8689  -8.8351  -8.8109
    -8.7927  -8.7672  -8.7102  -8.6685  -8.6295  -8.6056  -8.5706  -8.5505
    -5.2819  -5.2763  -5.2668  -5.2501  -5.2397  -5.2265  -5.1995  -5.1939
    -5.1877  -5.1694  -5.1657  -5.1565  -5.1479  -5.1444  -5.1420  -5.1339
    -5.1325  -5.1268  -5.0930  -5.0850  -5.0686  -4.9487  -4.9210  -4.9114
    -4.2133  -4.0321  -3.9378  -3.7376  -3.6457  -3.4760  -3.3537  -3.1420
    -0.7088  -0.5890  -0.5619  -0.5215  -0.3229  -0.2563  -0.2040  -0.1377
    -0.0575   0.0158   0.0527   0.1680   0.3075   0.4015   0.4649   0.4943
     0.5080   0.5471   0.5772   0.6195   0.6376   0.6681   0.7207   0.7519
     0.8044   0.8909   0.9291   0.9739   0.9928   1.0446   1.0828   1.1060
     1.1313   1.1958   1.2120   1.2357   1.2730   1.2910   1.3282   1.3854
     1.4112   1.4336   1.4638   1.4882   1.5330   1.5553   1.5872   1.6068
     1.6320   1.6406   1.6650   1.7011   1.7148   1.7363   1.7660   1.7930
     1.8109   1.8255   1.8774   1.8947   1.9157   1.9486   1.9682   2.0051
     2.0244   2.0924   2.1277   2.2134   2.2943   2.4105   2.4831   2.5996

          k =-0.3750 0.1250 0.3750 (132616 PWs)   bands (ev):

   -18.5166 -18.4608 -18.4309 -18.4079 -18.3767 -18.3734 -18.3403 -18.3387
   -18.3316 -18.3261 -18.3215 -18.2971 -18.2815 -18.2797 -18.2728 -18.2692
   -18.2663 -18.2660 -18.2584 -18.2561 -18.2532 -18.2496 -18.2260 -18.2194
   -18.2158 -18.2112 -18.2092 -18.2058 -18.2047 -18.2034 -18.2028 -18.2007
   -18.2007 -18.1947 -18.1913 -18.1854 -18.1833 -18.1803 -18.1754 -18.1674
   -18.1607 -18.1530 -18.1293 -18.1128 -18.1046 -18.0933 -18.0903 -18.0848
    -9.3570  -9.3104  -9.2576  -9.2008  -9.1676  -9.1224  -9.0767  -9.0239
    -9.0100  -8.9457  -8.9316  -8.9143  -8.8954  -8.8716  -8.8354  -8.8040
    -8.7942  -8.7674  -8.7097  -8.6717  -8.6279  -8.6062  -8.5703  -8.5505
    -5.2819  -5.2763  -5.2668  -5.2500  -5.2399  -5.2265  -5.1995  -5.1939
    -5.1877  -5.1696  -5.1657  -5.1560  -5.1479  -5.1442  -5.1426  -5.1341
    -5.1324  -5.1267  -5.0929  -5.0850  -5.0686  -4.9487  -4.9210  -4.9113
    -4.2182  -4.0126  -3.9536  -3.7266  -3.6642  -3.4446  -3.3805  -3.1382
    -0.7134  -0.6023  -0.5514  -0.5076  -0.3542  -0.1944  -0.1832  -0.1240
    -0.0757  -0.0324   0.0406   0.1369   0.3197   0.4189   0.4746   0.4913
     0.5161   0.5483   0.5785   0.6153   0.6488   0.6705   0.6998   0.7293
     0.8196   0.9018   0.9256   0.9597   0.9999   1.0492   1.0738   1.1133
     1.1392   1.1563   1.2191   1.2287   1.2866   1.3191   1.3516   1.3748
     1.4122   1.4560   1.4623   1.4839   1.5159   1.5320   1.5816   1.6093
     1.6149   1.6475   1.6797   1.6987   1.7097   1.7451   1.7641   1.8001
     1.8277   1.8533   1.8648   1.8919   1.9133   1.9415   1.9649   1.9929
     2.0317   2.0967   2.1301   2.2043   2.2751   2.4243   2.4871   2.5880

          k = 0.3750-0.3750 0.1250 (132616 PWs)   bands (ev):

   -18.5166 -18.4608 -18.4309 -18.4079 -18.3767 -18.3734 -18.3403 -18.3387
   -18.3316 -18.3261 -18.3215 -18.2971 -18.2814 -18.2798 -18.2728 -18.2692
   -18.2663 -18.2660 -18.2584 -18.2561 -18.2532 -18.2496 -18.2260 -18.2194
   -18.2158 -18.2112 -18.2092 -18.2058 -18.2047 -18.2034 -18.2028 -18.2007
   -18.2007 -18.1947 -18.1913 -18.1854 -18.1833 -18.1803 -18.1754 -18.1674
   -18.1607 -18.1530 -18.1293 -18.1128 -18.1046 -18.0933 -18.0903 -18.0848
    -9.3487  -9.3185  -9.2512  -9.2151  -9.1777  -9.1135  -9.0845  -9.0220
    -8.9635  -8.9389  -8.9322  -8.9235  -8.9037  -8.8696  -8.8588  -8.8254
    -8.7839  -8.7516  -8.7234  -8.6716  -8.6217  -8.5989  -8.5662  -8.5583
    -5.2820  -5.2764  -5.2669  -5.2499  -5.2396  -5.2261  -5.1999  -5.1940
    -5.1882  -5.1692  -5.1649  -5.1561  -5.1478  -5.1440  -5.1422  -5.1345
    -5.1316  -5.1287  -5.0931  -5.0849  -5.0683  -4.9480  -4.9210  -4.9115
    -4.2078  -4.0136  -3.9378  -3.7337  -3.6650  -3.4560  -3.3874  -3.1631
    -0.6338  -0.5896  -0.5168  -0.4548  -0.3679  -0.2724  -0.2330  -0.1361
    -0.0791  -0.0159   0.0939   0.1352   0.2942   0.4294   0.4523   0.5151
     0.5370   0.5515   0.5782   0.5966   0.6317   0.6681   0.7065   0.7769
     0.8032   0.8686   0.9270   0.9774   1.0062   1.0277   1.0578   1.0812
     1.0956   1.1871   1.2226   1.2388   1.3045   1.3392   1.3589   1.3999
     1.4165   1.4408   1.4835   1.5031   1.5431   1.5572   1.5904   1.5949
     1.6330   1.6515   1.6688   1.6885   1.7023   1.7316   1.7559   1.7862
     1.8002   1.8256   1.8500   1.8751   1.9088   1.9424   1.9677   2.0044
     2.0305   2.0817   2.0940   2.1939   2.2473   2.3727   2.4790   2.5548

          k =-0.3750-0.3750-0.1250 (132616 PWs)   bands (ev):

   -18.5166 -18.4608 -18.4309 -18.4079 -18.3767 -18.3734 -18.3403 -18.3387
   -18.3316 -18.3261 -18.3215 -18.2971 -18.2814 -18.2798 -18.2728 -18.2692
   -18.2663 -18.2660 -18.2584 -18.2561 -18.2532 -18.2496 -18.2260 -18.2194
   -18.2158 -18.2112 -18.2092 -18.2058 -18.2047 -18.2034 -18.2028 -18.2007
   -18.2007 -18.1947 -18.1913 -18.1854 -18.1833 -18.1803 -18.1754 -18.1674
   -18.1607 -18.1530 -18.1293 -18.1128 -18.1046 -18.0933 -18.0903 -18.0848
    -9.3537  -9.3076  -9.2583  -9.2167  -9.1755  -9.1139  -9.0816  -9.0237
    -8.9632  -8.9391  -8.9341  -8.9223  -8.9057  -8.8711  -8.8552  -8.8246
    -8.7833  -8.7537  -8.7219  -8.6714  -8.6226  -8.5990  -8.5648  -8.5593
    -5.2820  -5.2768  -5.2667  -5.2496  -5.2396  -5.2262  -5.1997  -5.1939
    -5.1885  -5.1692  -5.1648  -5.1560  -5.1478  -5.1439  -5.1425  -5.1344
    -5.1315  -5.1286  -5.0930  -5.0851  -5.0683  -4.9480  -4.9210  -4.9114
    -4.2115  -3.9969  -3.9502  -3.7306  -3.6673  -3.4544  -3.3946  -3.1588
    -0.6313  -0.5878  -0.5224  -0.4593  -0.3588  -0.2863  -0.2128  -0.1511
    -0.0648  -0.0090   0.0205   0.2099   0.3071   0.4504   0.4623   0.4791
     0.5024   0.5492   0.5762   0.6152   0.6383   0.6676   0.6912   0.7578
     0.8098   0.8748   0.9409   0.9585   0.9877   1.0400   1.0630   1.0751
     1.1212   1.1773   1.2204   1.2541   1.2981   1.3385   1.3702   1.3977
     1.4012   1.4356   1.4706   1.5182   1.5416   1.5622   1.5775   1.6028
     1.6330   1.6438   1.6667   1.6981   1.7120   1.7388   1.7513   1.7720
     1.8072   1.8492   1.8660   1.8909   1.9070   1.9378   1.9719   1.9871
     2.0151   2.0721   2.0948   2.1701   2.2719   2.3447   2.4814   2.5771

          k = 0.3750 0.3750-0.1250 (132616 PWs)   bands (ev):

   -18.5166 -18.4608 -18.4309 -18.4079 -18.3767 -18.3734 -18.3403 -18.3387
   -18.3316 -18.3261 -18.3215 -18.2971 -18.2814 -18.2798 -18.2728 -18.2692
   -18.2663 -18.2660 -18.2584 -18.2561 -18.2532 -18.2496 -18.2260 -18.2194
   -18.2158 -18.2112 -18.2092 -18.2058 -18.2047 -18.2034 -18.2028 -18.2007
   -18.2007 -18.1947 -18.1913 -18.1854 -18.1833 -18.1803 -18.1754 -18.1674
   -18.1607 -18.1530 -18.1293 -18.1128 -18.1046 -18.0933 -18.0903 -18.0848
    -9.3534  -9.3077  -9.2571  -9.2229  -9.1673  -9.1189  -9.0810  -9.0194
    -8.9642  -8.9468  -8.9315  -8.9202  -8.9062  -8.8699  -8.8540  -8.8271
    -8.7826  -8.7513  -8.7235  -8.6722  -8.6221  -8.5987  -8.5648  -8.5596
    -5.2820  -5.2768  -5.2667  -5.2496  -5.2395  -5.2264  -5.1997  -5.1940
    -5.1886  -5.1694  -5.1648  -5.1556  -5.1478  -5.1440  -5.1425  -5.1344
    -5.1315  -5.1286  -5.0931  -5.0850  -5.0682  -4.9480  -4.9210  -4.9114
    -4.2105  -3.9969  -3.9535  -3.7359  -3.6584  -3.4521  -3.3962  -3.1612
    -0.6407  -0.5764  -0.5108  -0.4635  -0.3609  -0.2801  -0.2041  -0.1695
    -0.0722  -0.0037   0.0012   0.2028   0.3148   0.4544   0.4819   0.4942
     0.5160   0.5544   0.5776   0.6100   0.6225   0.6444   0.6832   0.7813
     0.7855   0.8811   0.9393   0.9708   0.9838   1.0446   1.0568   1.0933
     1.1189   1.1753   1.2212   1.2310   1.2895   1.3365   1.3571   1.3836
     1.4192   1.4372   1.5032   1.5124   1.5577   1.5737   1.5825   1.6034
     1.6210   1.6515   1.6620   1.6847   1.7075   1.7284   1.7675   1.7728
     1.8159   1.8476   1.8549   1.8816   1.8990   1.9329   1.9661   1.9825
     2.0316   2.0802   2.0979   2.1838   2.2579   2.3562   2.4679   2.5705

          k =-0.3750 0.3750 0.1250 (132616 PWs)   bands (ev):

   -18.5166 -18.4608 -18.4309 -18.4079 -18.3767 -18.3734 -18.3403 -18.3387
   -18.3316 -18.3261 -18.3215 -18.2971 -18.2814 -18.2798 -18.2728 -18.2692
   -18.2663 -18.2660 -18.2584 -18.2561 -18.2532 -18.2496 -18.2260 -18.2194
   -18.2158 -18.2112 -18.2092 -18.2058 -18.2047 -18.2034 -18.2028 -18.2007
   -18.2007 -18.1947 -18.1913 -18.1854 -18.1833 -18.1803 -18.1754 -18.1674
   -18.1607 -18.1530 -18.1293 -18.1128 -18.1046 -18.0933 -18.0903 -18.0848
    -9.3489  -9.3185  -9.2504  -9.2161  -9.1793  -9.1045  -9.0902  -9.0204
    -8.9685  -8.9435  -8.9291  -8.9217  -8.9037  -8.8737  -8.8547  -8.8220
    -8.7838  -8.7529  -8.7224  -8.6730  -8.6219  -8.5989  -8.5661  -8.5581
    -5.2820  -5.2764  -5.2669  -5.2498  -5.2397  -5.2261  -5.1999  -5.1940
    -5.1881  -5.1694  -5.1650  -5.1556  -5.1478  -5.1439  -5.1426  -5.1345
    -5.1316  -5.1286  -5.0930  -5.0849  -5.0683  -4.9480  -4.9210  -4.9114
    -4.2105  -4.0111  -3.9362  -3.7280  -3.6712  -3.4523  -3.3942  -3.1612
    -0.6326  -0.5858  -0.5126  -0.4695  -0.3623  -0.2584  -0.2309  -0.1470
    -0.0843  -0.0133   0.0820   0.1468   0.3009   0.4391   0.4439   0.5073
     0.5344   0.5565   0.5741   0.5797   0.6322   0.6772   0.7027   0.7682
     0.8104   0.8651   0.9458   0.9711   0.9871   1.0448   1.0572   1.0751
     1.0974   1.1884   1.2266   1.2554   1.2754   1.3307   1.3588   1.3939
     1.4112   1.4424   1.4802   1.5227   1.5520   1.5661   1.5879   1.6036
     1.6276   1.6523   1.6736   1.6943   1.7058   1.7303   1.7540   1.7832
     1.8200   1.8325   1.8611   1.8881   1.9080   1.9403   1.9556   1.9909
     2.0276   2.0780   2.1003   2.1685   2.2392   2.3770   2.4792   2.5497

          k =-0.3750-0.3750 0.3750 (132612 PWs)   bands (ev):

   -18.5166 -18.4608 -18.4309 -18.4079 -18.3767 -18.3734 -18.3403 -18.3387
   -18.3316 -18.3261 -18.3215 -18.2971 -18.2814 -18.2798 -18.2728 -18.2692
   -18.2663 -18.2660 -18.2584 -18.2561 -18.2532 -18.2496 -18.2260 -18.2194
   -18.2158 -18.2112 -18.2092 -18.2058 -18.2047 -18.2034 -18.2028 -18.2007
   -18.2007 -18.1947 -18.1913 -18.1854 -18.1833 -18.1803 -18.1754 -18.1674
   -18.1607 -18.1530 -18.1293 -18.1128 -18.1046 -18.0933 -18.0903 -18.0848
    -9.3380  -9.2898  -9.2568  -9.2367  -9.1714  -9.1441  -9.1033  -9.0360
    -8.9707  -8.9434  -8.9298  -8.9014  -8.8888  -8.8608  -8.8460  -8.8090
    -8.7939  -8.7567  -8.7146  -8.6692  -8.6234  -8.6075  -8.5709  -8.5602
    -5.2819  -5.2767  -5.2667  -5.2497  -5.2397  -5.2264  -5.1996  -5.1941
    -5.1885  -5.1697  -5.1651  -5.1560  -5.1479  -5.1439  -5.1421  -5.1342
    -5.1314  -5.1283  -5.0929  -5.0850  -5.0682  -4.9484  -4.9209  -4.9114
    -4.0898  -3.9109  -3.8660  -3.7807  -3.6634  -3.5979  -3.5298  -3.3385
    -0.3895  -0.3714  -0.3308  -0.2448  -0.2389  -0.2108  -0.1420  -0.0958
    -0.0349   0.0250   0.0622   0.2307   0.3004   0.3660   0.4023   0.4552
     0.4696   0.4990   0.5226   0.5382   0.5734   0.6062   0.6305   0.6996
     0.8662   0.8837   0.9082   0.9540   0.9879   0.9997   1.0262   1.0579
     1.0864   1.1059   1.1279   1.1645   1.2128   1.2454   1.2827   1.3100
     1.3955   1.4078   1.4526   1.5037   1.5523   1.5762   1.6093   1.6560
     1.6686   1.6948   1.7172   1.7357   1.7564   1.7597   1.7907   1.8151
     1.8225   1.8374   1.8644   1.8816   1.9013   1.9287   1.9490   1.9647
     2.0069   2.0177   2.0633   2.0877   2.1223   2.1579   2.2039   2.3201

          k =-0.3750 0.3750-0.3750 (132612 PWs)   bands (ev):

   -18.5166 -18.4608 -18.4309 -18.4079 -18.3767 -18.3734 -18.3403 -18.3387
   -18.3316 -18.3261 -18.3215 -18.2971 -18.2814 -18.2798 -18.2728 -18.2692
   -18.2663 -18.2660 -18.2584 -18.2561 -18.2532 -18.2496 -18.2260 -18.2194
   -18.2158 -18.2112 -18.2092 -18.2058 -18.2047 -18.2034 -18.2028 -18.2007
   -18.2007 -18.1947 -18.1913 -18.1854 -18.1833 -18.1803 -18.1754 -18.1674
   -18.1607 -18.1530 -18.1293 -18.1128 -18.1046 -18.0933 -18.0903 -18.0848
    -9.3320  -9.3055  -9.2506  -9.2248  -9.1851  -9.1349  -9.1084  -9.0360
    -8.9766  -8.9369  -8.9238  -8.9005  -8.8921  -8.8606  -8.8481  -8.8110
    -8.7934  -8.7576  -8.7139  -8.6684  -8.6234  -8.6077  -8.5712  -8.5598
    -5.2819  -5.2765  -5.2668  -5.2499  -5.2397  -5.2262  -5.1998  -5.1941
    -5.1881  -5.1695  -5.1652  -5.1565  -5.1479  -5.1439  -5.1417  -5.1343
    -5.1314  -5.1284  -5.0929  -5.0848  -5.0683  -4.9483  -4.9209  -4.9115
    -4.0843  -3.9350  -3.8537  -3.7613  -3.6766  -3.6117  -3.5135  -3.3407
    -0.4243  -0.3466  -0.3055  -0.2884  -0.2434  -0.1837  -0.1355  -0.0997
    -0.0257   0.0333   0.1035   0.1902   0.2686   0.3497   0.3929   0.4369
     0.4722   0.5136   0.5313   0.5481   0.5653   0.6321   0.6487   0.7147
     0.8333   0.8884   0.9038   0.9627   0.9879   1.0128   1.0383   1.0560
     1.0733   1.1096   1.1390   1.1648   1.2056   1.2432   1.2574   1.3140
     1.3913   1.4120   1.4781   1.4921   1.5423   1.5744   1.6197   1.6585
     1.6756   1.6891   1.6997   1.7204   1.7396   1.7699   1.7939   1.8110
     1.8182   1.8445   1.8603   1.8783   1.9105   1.9259   1.9493   1.9729
     1.9953   2.0212   2.0528   2.0911   2.1548   2.1722   2.2186   2.2921

          k = 0.3750-0.3750-0.3750 (132612 PWs)   bands (ev):

   -18.5166 -18.4608 -18.4309 -18.4079 -18.3767 -18.3734 -18.3403 -18.3387
   -18.3316 -18.3261 -18.3215 -18.2971 -18.2814 -18.2798 -18.2728 -18.2692
   -18.2663 -18.2660 -18.2584 -18.2561 -18.2532 -18.2496 -18.2260 -18.2194
   -18.2158 -18.2112 -18.2092 -18.2058 -18.2047 -18.2034 -18.2028 -18.2007
   -18.2007 -18.1947 -18.1913 -18.1854 -18.1833 -18.1803 -18.1754 -18.1674
   -18.1607 -18.1530 -18.1293 -18.1128 -18.1046 -18.0933 -18.0903 -18.0848
    -9.3324  -9.3052  -9.2485  -9.2272  -9.1878  -9.1244  -9.1141  -9.0354
    -8.9799  -8.9404  -8.9216  -8.9002  -8.8904  -8.8644  -8.8466  -8.8038
    -8.7961  -8.7589  -8.7129  -8.6700  -8.6238  -8.6075  -8.5710  -8.5596
    -5.2819  -5.2765  -5.2668  -5.2498  -5.2399  -5.2262  -5.1998  -5.1941
    -5.1881  -5.1697  -5.1653  -5.1560  -5.1479  -5.1437  -5.1422  -5.1343
    -5.1314  -5.1283  -5.0928  -5.0848  -5.0683  -4.9483  -4.9209  -4.9114
    -4.0938  -3.9055  -3.8516  -3.8038  -3.6501  -3.5756  -3.5631  -3.3336
    -0.4182  -0.3800  -0.3080  -0.2740  -0.2059  -0.1700  -0.1438  -0.0736
    -0.0368  -0.0045   0.0834   0.2072   0.2800   0.3352   0.3874   0.4304
     0.4792   0.5120   0.5327   0.5491   0.5707   0.6329   0.6392   0.6851
     0.8658   0.8789   0.9363   0.9641   0.9858   0.9903   1.0215   1.0573
     1.0862   1.1148   1.1266   1.1563   1.2032   1.2445   1.2892   1.3161
     1.3935   1.4095   1.4611   1.4905   1.5538   1.5830   1.6183   1.6405
     1.6736   1.6923   1.7046   1.7211   1.7476   1.7604   1.7975   1.8123
     1.8315   1.8534   1.8720   1.8886   1.9148   1.9289   1.9556   1.9709
     1.9890   2.0088   2.0754   2.0869   2.1205   2.1497   2.1841   2.3244

     highest occupied level (ev):     3.1622

!    total energy              =   -2256.31790986 Ry
     estimated scf accuracy    <          4.3E-11 Ry

     The total energy is the sum of the following terms:
     one-electron contribution =    -992.83942745 Ry
     hartree contribution      =     624.47936379 Ry
     xc contribution           =    -647.48824588 Ry
     ewald contribution        =   -1240.46960032 Ry

     convergence has been achieved in  15 iterations

     Forces acting on atoms (cartesian axes, Ry/au):

     atom    1 type  1   force =    -0.00137251   -0.00154548    0.00230590
     atom    2 type  2   force =    -0.00162346   -0.01638391   -0.00913310
     atom    3 type  3   force =    -0.01144933   -0.00145464    0.00445944
     atom    4 type  3   force =    -0.00009540    0.00195585   -0.00372636
     atom    5 type  3   force =     0.00157674    0.01184880   -0.00058184
     atom    6 type  1   force =     0.00130183   -0.00145205    0.00209523
     atom    7 type  2   force =    -0.00491796   -0.00482237    0.01408775
     atom    8 type  3   force =    -0.00571544    0.00460930    0.00476899
     atom    9 type  3   force =     0.00356861    0.00082687    0.00523354
     atom   10 type  3   force =     0.00105946   -0.00008366    0.00414874
     atom   11 type  1   force =    -0.01162500   -0.01060882    0.00138330
     atom   12 type  2   force =     0.01034754    0.00527879    0.00166986
     atom   13 type  3   force =     0.00522471    0.00149022   -0.00354344
     atom   14 type  3   force =    -0.00348213    0.00190734   -0.01181205
     atom   15 type  3   force =    -0.00575412   -0.00738566   -0.00417544
     atom   16 type  1   force =     0.00004494    0.00132251   -0.00183169
     atom   17 type  2   force =    -0.01358069    0.00888677   -0.00541781
     atom   18 type  3   force =    -0.00554378   -0.00573068    0.00448129
     atom   19 type  3   force =     0.00188300   -0.00008440    0.00920360
     atom   20 type  3   force =     0.00226929   -0.00474222   -0.00229857
     atom   21 type  1   force =     0.00164548    0.00128297    0.00202771
     atom   22 type  2   force =    -0.01000026    0.00334970   -0.00222879
     atom   23 type  3   force =    -0.00244642   -0.00376254   -0.00375545
     atom   24 type  3   force =     0.01934284    0.01728318   -0.00567186
     atom   25 type  3   force =     0.00205878    0.00026309    0.00314361
     atom   26 type  1   force =     0.00092959   -0.00097447   -0.00063092
     atom   27 type  2   force =     0.00956982   -0.00920745    0.00951353
     atom   28 type  3   force =    -0.00372783    0.00047004   -0.00425545
     atom   29 type  3   force =     0.01157961   -0.00241264   -0.00627115
     atom   30 type  3   force =    -0.00402582    0.00315374   -0.00174961
     atom   31 type  1   force =    -0.00031572    0.00047977    0.00306275
     atom   32 type  2   force =    -0.00149630    0.00237207   -0.00372128
     atom   33 type  3   force =    -0.00403973    0.00343841   -0.00124424
     atom   34 type  3   force =    -0.00070211   -0.00229261    0.01201240
     atom   35 type  3   force =    -0.00876938    0.00092378    0.00400440
     atom   36 type  1   force =     0.01152101    0.00084945   -0.01057575
     atom   37 type  2   force =     0.00991425    0.00563408   -0.00065778
     atom   38 type  3   force =     0.00054107   -0.00312613    0.00096144
     atom   39 type  3   force =     0.00279897   -0.00098718   -0.00711097
     atom   40 type  3   force =     0.00350590   -0.00056981    0.00183003

     Total force =     0.066449     Total SCF correction =     0.000025


     Computing stress (Cartesian axis) and pressure

          total   stress  (Ry/bohr**3)                   (kbar)     P=       -8.01
  -0.00005265   0.00000280  -0.00000557           -7.74        0.41       -0.82
   0.00000280  -0.00005576  -0.00000254            0.41       -8.20       -0.37
  -0.00000557  -0.00000254  -0.00005488           -0.82       -0.37       -8.07

 
     init_run     :     20.13s CPU     17.01s WALL (       1 calls)
     electrons    :    201.05s CPU    213.51s WALL (       1 calls)
     forces       :      8.69s CPU      3.92s WALL (       1 calls)
     stress       :     31.52s CPU     31.19s WALL (       1 calls)

     Called by init_run:
     wfcinit      :     12.17s CPU     13.95s WALL (       1 calls)
                                       13.95s GPU  (       1 calls)
     potinit      :      4.54s CPU      1.39s WALL (       1 calls)
     hinit0       :      2.84s CPU      0.99s WALL (       1 calls)

     Called by electrons:
     c_bands      :    120.12s CPU    171.13s WALL (      16 calls)
     sum_band     :     21.98s CPU     21.13s WALL (      16 calls)
                                       21.13s GPU  (      16 calls)
     v_of_rho     :     54.62s CPU     16.62s WALL (      16 calls)
     mix_rho      :      6.42s CPU      4.93s WALL (      16 calls)

     Called by c_bands:
     init_us_2    :      2.18s CPU      2.93s WALL (     280 calls)
                                        2.93s GPU  (     280 calls)
     cegterg      :     81.38s CPU    129.77s WALL (     128 calls)

     Called by *egterg:
     cdiaghg      :     13.22s CPU     25.94s WALL (     634 calls)
                                       25.90s GPU  (     634 calls)
     h_psi        :     55.41s CPU     74.84s WALL (     650 calls)
                                       74.39s GPU  (     650 calls)
     g_psi        :      0.00s CPU      0.37s WALL (     514 calls)
                                        0.36s GPU  (     514 calls)

     Called by h_psi:
     h_psi:calbec :      0.34s CPU     10.08s WALL (     650 calls)
                                       10.07s GPU  (     650 calls)
     vloc_psi     :     40.22s CPU     54.63s WALL (     650 calls)
                                       53.69s GPU  (     650 calls)
     add_vuspsi   :      0.33s CPU     10.06s WALL (     650 calls)
                                       10.05s GPU  (     650 calls)

     General routines
     calbec       :      0.34s CPU      0.39s WALL (     690 calls)
     fft          :     25.60s CPU      6.51s WALL (     185 calls)
                                        0.00s GPU  (       6 calls)
     ffts         :      2.65s CPU      0.68s WALL (      16 calls)
     fftw         :      0.55s CPU     63.21s WALL (   10604 calls)
                                       47.21s GPU  (   10604 calls)
 
     Parallel routines
 
     PWSCF        :   4m22.03s CPU   4m26.41s WALL

 
   This run was terminated on:  21:11:54  22Apr2021            

=------------------------------------------------------------------------------=
   JOB DONE.
=------------------------------------------------------------------------------=
