
     Program PWSCF v.6.7MaX starts on 22Apr2021 at 21:25:18 

     This program is part of the open-source Quantum ESPRESSO suite
     for quantum simulation of materials; please cite
         "P. Giannozzi et al., J. Phys.:Condens. Matter 21 395502 (2009);
         "P. Giannozzi et al., J. Phys.:Condens. Matter 29 465901 (2017);
         "P. Giannozzi et al., J. Chem. Phys. 152 154105 (2020);
          URL http://www.quantum-espresso.org", 
     in publications or presentations arising from this work. More details at
     http://www.quantum-espresso.org/quote

     Parallel version (MPI & OpenMP), running on      16 processor cores
     Number of MPI processes:                 4
     Threads/MPI process:                     4

     MPI processes distributed on     1 nodes
     K-points division:     npool     =       4
     Reading input from ESP_71.pwi
Warning: card &CELL ignored
Warning: card / ignored

     Current dimensions of program PWSCF are:
     Max number of different atomic species (ntypx) = 10
     Max number of k-points (npk) =  40000
     Max angular momentum in pseudopotentials (lmaxx) =  3
     Message from routine read_pp_mesh:
     mesh size missing, using the one in header
     Message from routine read_pp_mesh:
     mesh size missing, using the one in header
     Message from routine read_pp_mesh:
     mesh size missing, using the one in header

     Subspace diagonalization in iterative solution of the eigenvalue problem:
     a serial algorithm will be used

 
     G-vector sticks info
     --------------------
     sticks:   dense  smooth     PW     G-vecs:    dense   smooth      PW
     Sum       12589   12589   3289              1061107  1061107  140905
 
     Using Slab Decomposition
 


     bravais-lattice index     =            0
     lattice parameter (alat)  =      23.7585  a.u.
     unit-cell volume          =   13410.8736 (a.u.)^3
     number of atoms/cell      =           40
     number of atomic types    =            3
     number of electrons       =       352.00
     number of Kohn-Sham states=          176
     kinetic-energy cutoff     =      70.0000  Ry
     charge density cutoff     =     280.0000  Ry
     scf convergence threshold =      1.0E-10
     mixing beta               =       0.7000
     number of iterations used =            8  plain     mixing
     Exchange-correlation= PBESOL
                           (   1   4  10   8   0   0   0)

     GPU acceleration is ACTIVE.


     celldm(1)=  23.758500  celldm(2)=   0.000000  celldm(3)=   0.000000
     celldm(4)=   0.000000  celldm(5)=   0.000000  celldm(6)=   0.000000

     crystal axes: (cart. coord. in units of alat)
               a(1) = (   1.000000   0.000000   0.000000 )  
               a(2) = (   0.000000   1.000000   0.000000 )  
               a(3) = (   0.000000   0.000000   1.000000 )  

     reciprocal axes: (cart. coord. in units 2 pi/alat)
               b(1) = (  1.000000  0.000000  0.000000 )  
               b(2) = (  0.000000  1.000000  0.000000 )  
               b(3) = (  0.000000  0.000000  1.000000 )  


     PseudoPot. # 1 for Cs read from file:
     /m100/home/userexternal/lmonacel/espresso/pseudo/Cs-nc-pbesol.upf
     MD5 check sum: 9d2f2206a14dc5b3b3f3fbfae186bed4
     Pseudo is Norm-conserving + core correction, Zval =  9.0
     Generated using ONCVPSP code by D. R. Hamann
     Using radial grid of 2384 points,  8 beta functions with: 
                l(1) =   0
                l(2) =   0
                l(3) =   1
                l(4) =   1
                l(5) =   2
                l(6) =   2
                l(7) =   3
                l(8) =   3

     PseudoPot. # 2 for Sn read from file:
     /m100/home/userexternal/lmonacel/espresso/pseudo/Sn-nc-pbesol.upf
     MD5 check sum: c2995d571af40102bfea7461443d92cf
     Pseudo is Norm-conserving + core correction, Zval = 14.0
     Generated using ONCVPSP code by D. R. Hamann
     Using radial grid of 1628 points,  6 beta functions with: 
                l(1) =   0
                l(2) =   0
                l(3) =   1
                l(4) =   1
                l(5) =   2
                l(6) =   2

     PseudoPot. # 3 for I  read from file:
     /m100/home/userexternal/lmonacel/espresso/pseudo/I-nc-pbesol.upf
     MD5 check sum: 80ed5ceb2eb9c553cfb6760a299d9c5b
     Pseudo is Norm-conserving + core correction, Zval =  7.0
     Generated using ONCVPSP code by D. R. Hamann
     Using radial grid of 1182 points,  6 beta functions with: 
                l(1) =   0
                l(2) =   0
                l(3) =   1
                l(4) =   1
                l(5) =   2
                l(6) =   2

     atomic species   valence    mass     pseudopotential
        Cs             9.00   132.90545     Cs( 1.00)
        Sn            14.00   118.71000     Sn( 1.00)
        I              7.00   126.90447     I ( 1.00)

     No symmetry found



   Cartesian axes

     site n.     atom                  positions (alat units)
         1           Cs  tau(   1) = (   0.2377195   0.2314429   0.2264522  )
         2           Sn  tau(   2) = (  -0.0346292   0.0107497   0.0006762  )
         3           I   tau(   3) = (   0.2368597   0.0171775  -0.0034687  )
         4           I   tau(   4) = (   0.0017904   0.0092192   0.2550990  )
         5           I   tau(   5) = (   0.0171532   0.2549722  -0.0405023  )
         6           Cs  tau(   6) = (   0.2557221   0.2559179   0.7204014  )
         7           Sn  tau(   7) = (  -0.0215687  -0.0084085   0.5118426  )
         8           I   tau(   8) = (   0.2304059  -0.0104375   0.5398577  )
         9           I   tau(   9) = (  -0.0370297  -0.0205122   0.7571148  )
        10           I   tau(  10) = (  -0.0014732   0.2436675   0.5255790  )
        11           Cs  tau(  11) = (   0.2672549   0.7565539   0.2566539  )
        12           Sn  tau(  12) = (   0.0273083   0.4974955   0.0169239  )
        13           I   tau(  13) = (   0.2724282   0.4970292   0.0608884  )
        14           I   tau(  14) = (   0.0254285   0.4586624   0.2656171  )
        15           I   tau(  15) = (  -0.0180763   0.7574408   0.0269176  )
        16           Cs  tau(  16) = (   0.2477290   0.7361110   0.7763017  )
        17           Sn  tau(  17) = (  -0.0055933   0.5092811   0.5044221  )
        18           I   tau(  18) = (   0.2464472   0.4762381   0.4894910  )
        19           I   tau(  19) = (   0.0695463   0.5430741   0.7636769  )
        20           I   tau(  20) = (  -0.0145571   0.7485335   0.4840465  )
        21           Cs  tau(  21) = (   0.7529558   0.2404538   0.2279908  )
        22           Sn  tau(  22) = (   0.4816305   0.0136548  -0.0016067  )
        23           I   tau(  23) = (   0.7427661   0.0119840   0.0139436  )
        24           I   tau(  24) = (   0.4789950  -0.0232349   0.2365729  )
        25           I   tau(  25) = (   0.5136197   0.2737116   0.0165270  )
        26           Cs  tau(  26) = (   0.7335293   0.2546168   0.7345366  )
        27           Sn  tau(  27) = (   0.4800623  -0.0202033   0.5000006  )
        28           I   tau(  28) = (   0.7249474  -0.0143786   0.4672354  )
        29           I   tau(  29) = (   0.4984835   0.0346973   0.7380595  )
        30           I   tau(  30) = (   0.5004873   0.2394048   0.4624971  )
        31           Cs  tau(  31) = (   0.7754620   0.7721014   0.2213817  )
        32           Sn  tau(  32) = (   0.5175935   0.5010890   0.0008958  )
        33           I   tau(  33) = (   0.7783233   0.4903546  -0.0033263  )
        34           I   tau(  34) = (   0.5201929   0.5174801   0.2465571  )
        35           I   tau(  35) = (   0.5088710   0.7597136  -0.0055132  )
        36           Cs  tau(  36) = (   0.7300881   0.7201253   0.7796692  )
        37           Sn  tau(  37) = (   0.5106215   0.4896446   0.4910323  )
        38           I   tau(  38) = (   0.7487182   0.5316605   0.4976166  )
        39           I   tau(  39) = (   0.5028371   0.5145744   0.7549263  )
        40           I   tau(  40) = (   0.4940493   0.7294545   0.4872516  )

     number of k points=    32
                       cart. coord. in units 2pi/alat
        k(    1) = (   0.1250000   0.1250000   0.1250000), wk =   0.0625000
        k(    2) = (   0.1250000   0.1250000   0.3750000), wk =   0.0625000
        k(    3) = (   0.1250000   0.3750000   0.3750000), wk =   0.0625000
        k(    4) = (   0.3750000   0.3750000   0.3750000), wk =   0.0625000
        k(    5) = (  -0.1250000  -0.1250000   0.1250000), wk =   0.0625000
        k(    6) = (  -0.1250000   0.1250000  -0.1250000), wk =   0.0625000
        k(    7) = (   0.1250000  -0.1250000  -0.1250000), wk =   0.0625000
        k(    8) = (  -0.1250000  -0.1250000   0.3750000), wk =   0.0625000
        k(    9) = (  -0.1250000   0.1250000  -0.3750000), wk =   0.0625000
        k(   10) = (   0.1250000  -0.1250000  -0.3750000), wk =   0.0625000
        k(   11) = (   0.3750000  -0.1250000   0.1250000), wk =   0.0625000
        k(   12) = (  -0.3750000  -0.1250000  -0.1250000), wk =   0.0625000
        k(   13) = (   0.3750000   0.1250000  -0.1250000), wk =   0.0625000
        k(   14) = (  -0.3750000   0.1250000   0.1250000), wk =   0.0625000
        k(   15) = (  -0.1250000   0.3750000   0.1250000), wk =   0.0625000
        k(   16) = (  -0.1250000  -0.3750000  -0.1250000), wk =   0.0625000
        k(   17) = (   0.1250000   0.3750000  -0.1250000), wk =   0.0625000
        k(   18) = (   0.1250000  -0.3750000   0.1250000), wk =   0.0625000
        k(   19) = (  -0.1250000  -0.3750000   0.3750000), wk =   0.0625000
        k(   20) = (  -0.1250000   0.3750000  -0.3750000), wk =   0.0625000
        k(   21) = (   0.1250000  -0.3750000  -0.3750000), wk =   0.0625000
        k(   22) = (   0.3750000   0.1250000  -0.3750000), wk =   0.0625000
        k(   23) = (  -0.3750000  -0.1250000  -0.3750000), wk =   0.0625000
        k(   24) = (   0.3750000  -0.1250000   0.3750000), wk =   0.0625000
        k(   25) = (  -0.3750000   0.1250000   0.3750000), wk =   0.0625000
        k(   26) = (   0.3750000  -0.3750000   0.1250000), wk =   0.0625000
        k(   27) = (  -0.3750000  -0.3750000  -0.1250000), wk =   0.0625000
        k(   28) = (   0.3750000   0.3750000  -0.1250000), wk =   0.0625000
        k(   29) = (  -0.3750000   0.3750000   0.1250000), wk =   0.0625000
        k(   30) = (  -0.3750000  -0.3750000   0.3750000), wk =   0.0625000
        k(   31) = (  -0.3750000   0.3750000  -0.3750000), wk =   0.0625000
        k(   32) = (   0.3750000  -0.3750000  -0.3750000), wk =   0.0625000

     Dense  grid:  1061107 G-vectors     FFT dimensions: ( 128, 128, 128)

     Estimated max dynamical RAM per process >       6.82 GB

     Estimated total dynamical RAM >      27.27 GB

     Initial potential from superposition of free atoms

     starting charge  351.69472, renormalised to  352.00000
     Starting wfcs are  208 randomized atomic wfcs

     total cpu time spent up to now is       17.4 secs

     Self-consistent Calculation

     iteration #  1     ecut=    70.00 Ry     beta= 0.70
     Davidson diagonalization with overlap
     ethr =  1.00E-02,  avg # of iterations =  2.0

     Threshold (ethr) on eigenvalues was too large:
     Diagonalizing with lowered threshold

     Davidson diagonalization with overlap
     ethr =  2.25E-04,  avg # of iterations =  4.0

     total cpu time spent up to now is       38.4 secs

     total energy              =   -2255.99957841 Ry
     estimated scf accuracy    <       0.69046475 Ry

     iteration #  2     ecut=    70.00 Ry     beta= 0.70
     Davidson diagonalization with overlap
     ethr =  1.96E-04,  avg # of iterations =  3.3

     total cpu time spent up to now is       51.2 secs

     total energy              =   -2256.20822055 Ry
     estimated scf accuracy    <       0.33211505 Ry

     iteration #  3     ecut=    70.00 Ry     beta= 0.70
     Davidson diagonalization with overlap
     ethr =  9.44E-05,  avg # of iterations =  2.9

     total cpu time spent up to now is       63.0 secs

     total energy              =   -2256.27238682 Ry
     estimated scf accuracy    <       0.03189911 Ry

     iteration #  4     ecut=    70.00 Ry     beta= 0.70
     Davidson diagonalization with overlap
     ethr =  9.06E-06,  avg # of iterations =  4.0

     total cpu time spent up to now is       75.7 secs

     total energy              =   -2256.28260027 Ry
     estimated scf accuracy    <       0.00434353 Ry

     iteration #  5     ecut=    70.00 Ry     beta= 0.70
     Davidson diagonalization with overlap
     ethr =  1.23E-06,  avg # of iterations =  3.5

     total cpu time spent up to now is       88.3 secs

     total energy              =   -2256.28340479 Ry
     estimated scf accuracy    <       0.00109829 Ry

     iteration #  6     ecut=    70.00 Ry     beta= 0.70
     Davidson diagonalization with overlap
     ethr =  3.12E-07,  avg # of iterations =  3.9

     total cpu time spent up to now is      100.9 secs

     total energy              =   -2256.28361251 Ry
     estimated scf accuracy    <       0.00013182 Ry

     iteration #  7     ecut=    70.00 Ry     beta= 0.70
     Davidson diagonalization with overlap
     ethr =  3.74E-08,  avg # of iterations =  5.0

     total cpu time spent up to now is      114.9 secs

     total energy              =   -2256.28366359 Ry
     estimated scf accuracy    <       0.00002370 Ry

     iteration #  8     ecut=    70.00 Ry     beta= 0.70
     Davidson diagonalization with overlap
     ethr =  6.73E-09,  avg # of iterations =  4.0

     total cpu time spent up to now is      128.0 secs

     total energy              =   -2256.28367113 Ry
     estimated scf accuracy    <       0.00000449 Ry

     iteration #  9     ecut=    70.00 Ry     beta= 0.70
     Davidson diagonalization with overlap
     ethr =  1.28E-09,  avg # of iterations =  4.0

     total cpu time spent up to now is      141.6 secs

     total energy              =   -2256.28367274 Ry
     estimated scf accuracy    <       0.00000077 Ry

     iteration # 10     ecut=    70.00 Ry     beta= 0.70
     Davidson diagonalization with overlap
     ethr =  2.20E-10,  avg # of iterations =  3.2

     total cpu time spent up to now is      155.1 secs

     total energy              =   -2256.28367295 Ry
     estimated scf accuracy    <       0.00000023 Ry

     iteration # 11     ecut=    70.00 Ry     beta= 0.70
     Davidson diagonalization with overlap
     ethr =  6.65E-11,  avg # of iterations =  3.8

     total cpu time spent up to now is      168.9 secs

     total energy              =   -2256.28367302 Ry
     estimated scf accuracy    <       0.00000002 Ry

     iteration # 12     ecut=    70.00 Ry     beta= 0.70
     Davidson diagonalization with overlap
     ethr =  6.99E-12,  avg # of iterations =  6.9

     total cpu time spent up to now is      187.4 secs

     total energy              =   -2256.28367305 Ry
     estimated scf accuracy    <       0.00000002 Ry

     iteration # 13     ecut=    70.00 Ry     beta= 0.70
     Davidson diagonalization with overlap
     ethr =  4.49E-12,  avg # of iterations =  3.0

     total cpu time spent up to now is      199.5 secs

     total energy              =   -2256.28367305 Ry
     estimated scf accuracy    <          1.5E-09 Ry

     iteration # 14     ecut=    70.00 Ry     beta= 0.70
     Davidson diagonalization with overlap
     ethr =  4.31E-13,  avg # of iterations =  4.9

     total cpu time spent up to now is      214.2 secs

     total energy              =   -2256.28367305 Ry
     estimated scf accuracy    <          1.8E-10 Ry

     iteration # 15     ecut=    70.00 Ry     beta= 0.70
     Davidson diagonalization with overlap
     ethr =  1.00E-13,  avg # of iterations =  5.0

     total cpu time spent up to now is      228.2 secs

     End of self-consistent calculation

          k = 0.1250 0.1250 0.1250 (132670 PWs)   bands (ev):

   -18.6014 -18.4519 -18.4266 -18.3990 -18.3904 -18.3876 -18.3814 -18.3714
   -18.3451 -18.3068 -18.3048 -18.3003 -18.2911 -18.2868 -18.2855 -18.2816
   -18.2810 -18.2783 -18.2781 -18.2767 -18.2761 -18.2720 -18.2717 -18.2683
   -18.2675 -18.2651 -18.2650 -18.2603 -18.2568 -18.2512 -18.2503 -18.2454
   -18.2423 -18.2391 -18.2357 -18.2351 -18.2311 -18.2284 -18.2251 -18.2209
   -18.2208 -18.2165 -18.2026 -18.2022 -18.1954 -18.1918 -18.1820 -18.1771
    -9.6341  -9.4085  -9.2826  -9.1625  -9.1197  -9.0957  -9.0161  -9.0022
    -8.9699  -8.9358  -8.9158  -8.8885  -8.8733  -8.8419  -8.8092  -8.7840
    -8.7677  -8.7377  -8.7256  -8.6896  -8.6657  -8.6066  -8.5539  -8.4122
    -5.3690  -5.3481  -5.3448  -5.2391  -5.2146  -5.2132  -5.2054  -5.1963
    -5.1901  -5.1255  -5.1139  -5.1015  -5.0606  -5.0388  -5.0313  -5.0255
    -5.0203  -5.0140  -5.0077  -5.0055  -5.0025  -4.9877  -4.9864  -4.9759
    -4.4745  -4.0224  -3.9411  -3.8559  -3.4336  -3.3899  -3.3127  -2.7547
    -0.7870  -0.7375  -0.6676  -0.6067  -0.5886  -0.5522  -0.4895  -0.4375
    -0.3825  -0.2954  -0.2366  -0.2054   0.4076   0.4586   0.4969   0.6294
     0.6540   0.6748   0.7292   0.7617   0.8086   0.8668   0.9147   0.9346
     1.0122   1.0363   1.0798   1.1040   1.1307   1.1634   1.1781   1.1949
     1.2209   1.2656   1.2746   1.3066   1.3300   1.3527   1.3718   1.3808
     1.4070   1.4284   1.4411   1.4926   1.5073   1.5277   1.5488   1.5731
     1.5947   1.6081   1.6224   1.6504   1.6654   1.6959   1.7155   1.7276
     1.7856   1.8117   1.8980   1.9637   2.0013   2.0257   2.0757   2.1228
     2.1719   2.1860   2.2630   2.3277   2.5569   2.6870   2.7522   3.0661

          k = 0.1250 0.1250 0.3750 (132608 PWs)   bands (ev):

   -18.6014 -18.4519 -18.4266 -18.3990 -18.3904 -18.3876 -18.3814 -18.3714
   -18.3451 -18.3068 -18.3048 -18.3003 -18.2911 -18.2868 -18.2855 -18.2816
   -18.2810 -18.2783 -18.2781 -18.2767 -18.2761 -18.2720 -18.2717 -18.2683
   -18.2675 -18.2651 -18.2650 -18.2603 -18.2568 -18.2512 -18.2503 -18.2454
   -18.2423 -18.2391 -18.2357 -18.2351 -18.2311 -18.2284 -18.2251 -18.2209
   -18.2208 -18.2165 -18.2026 -18.2022 -18.1954 -18.1918 -18.1820 -18.1771
    -9.6327  -9.3995  -9.2906  -9.1515  -9.1268  -9.0995  -9.0490  -9.0080
    -8.9669  -8.9408  -8.9106  -8.8790  -8.8623  -8.8394  -8.8069  -8.7721
    -8.7580  -8.7427  -8.7094  -8.6913  -8.6757  -8.6137  -8.5590  -8.4134
    -5.3690  -5.3480  -5.3448  -5.2388  -5.2142  -5.2128  -5.2056  -5.1967
    -5.1902  -5.1254  -5.1139  -5.1015  -5.0610  -5.0382  -5.0312  -5.0254
    -5.0202  -5.0142  -5.0077  -5.0057  -5.0027  -4.9880  -4.9865  -4.9762
    -4.3545  -4.1441  -3.8351  -3.7681  -3.5912  -3.5333  -3.2205  -2.9611
    -0.7865  -0.7148  -0.6276  -0.5750  -0.5076  -0.4598  -0.4227  -0.2800
    -0.1145  -0.0887  -0.0140   0.1086   0.4026   0.4376   0.4711   0.5176
     0.5684   0.6148   0.6592   0.6747   0.7031   0.7270   0.7662   0.8104
     0.8577   0.9318   0.9730   1.0487   1.0981   1.1287   1.1549   1.1885
     1.2068   1.2475   1.2671   1.2904   1.3128   1.3532   1.3636   1.3864
     1.4301   1.4450   1.4774   1.4971   1.5228   1.5491   1.5644   1.5743
     1.5910   1.6146   1.6424   1.6659   1.6908   1.7047   1.7254   1.7564
     1.7846   1.8161   1.8733   1.9012   1.9533   1.9876   2.0111   2.0408
     2.1434   2.1914   2.2607   2.3255   2.3841   2.4637   2.6868   2.8377

          k = 0.1250 0.3750 0.3750 (132616 PWs)   bands (ev):

   -18.6014 -18.4519 -18.4266 -18.3990 -18.3904 -18.3876 -18.3814 -18.3714
   -18.3451 -18.3068 -18.3048 -18.3003 -18.2911 -18.2868 -18.2855 -18.2816
   -18.2810 -18.2783 -18.2781 -18.2767 -18.2761 -18.2720 -18.2717 -18.2683
   -18.2675 -18.2651 -18.2650 -18.2603 -18.2568 -18.2512 -18.2503 -18.2454
   -18.2423 -18.2391 -18.2357 -18.2351 -18.2311 -18.2284 -18.2251 -18.2209
   -18.2208 -18.2165 -18.2026 -18.2022 -18.1954 -18.1918 -18.1820 -18.1771
    -9.6306  -9.3993  -9.2835  -9.1434  -9.1331  -9.1199  -9.0604  -9.0033
    -8.9583  -8.9511  -8.9239  -8.8744  -8.8615  -8.8323  -8.7833  -8.7666
    -8.7563  -8.7370  -8.7194  -8.6938  -8.6682  -8.6228  -8.5608  -8.4157
    -5.3690  -5.3480  -5.3447  -5.2390  -5.2143  -5.2124  -5.2060  -5.1962
    -5.1901  -5.1255  -5.1141  -5.1018  -5.0596  -5.0386  -5.0316  -5.0261
    -5.0200  -5.0136  -5.0078  -5.0059  -5.0021  -4.9886  -4.9857  -4.9768
    -4.2311  -4.1134  -3.8774  -3.7371  -3.6525  -3.5489  -3.3103  -3.1648
    -0.7893  -0.6018  -0.5511  -0.4580  -0.3751  -0.2413  -0.1587  -0.1115
    -0.0517   0.0380   0.1003   0.1519   0.3202   0.3928   0.4664   0.5049
     0.5151   0.5513   0.6077   0.6321   0.6712   0.6755   0.6953   0.7269
     0.7960   0.8716   0.9310   0.9804   1.0323   1.0659   1.0923   1.1400
     1.1662   1.1911   1.2135   1.2344   1.2761   1.3233   1.3364   1.3869
     1.4033   1.4347   1.4728   1.5049   1.5127   1.5375   1.5607   1.5883
     1.6138   1.6251   1.6550   1.6986   1.7139   1.7232   1.7578   1.7787
     1.8146   1.8329   1.8565   1.8844   1.9331   1.9784   1.9867   2.0199
     2.0514   2.0945   2.1509   2.2497   2.2733   2.4079   2.4478   2.5467

          k = 0.3750 0.3750 0.3750 (132612 PWs)   bands (ev):

   -18.6014 -18.4519 -18.4266 -18.3990 -18.3904 -18.3876 -18.3814 -18.3714
   -18.3451 -18.3068 -18.3048 -18.3003 -18.2911 -18.2868 -18.2855 -18.2816
   -18.2810 -18.2783 -18.2781 -18.2767 -18.2761 -18.2720 -18.2717 -18.2683
   -18.2675 -18.2651 -18.2650 -18.2603 -18.2568 -18.2512 -18.2503 -18.2454
   -18.2423 -18.2391 -18.2357 -18.2351 -18.2311 -18.2284 -18.2251 -18.2209
   -18.2208 -18.2165 -18.2026 -18.2022 -18.1954 -18.1918 -18.1820 -18.1771
    -9.6285  -9.3958  -9.2727  -9.1699  -9.1478  -9.1115  -9.0639  -9.0090
    -8.9658  -8.9475  -8.9046  -8.8823  -8.8518  -8.8140  -8.7885  -8.7602
    -8.7527  -8.7378  -8.7145  -8.7026  -8.6730  -8.6262  -8.5609  -8.4173
    -5.3690  -5.3480  -5.3447  -5.2390  -5.2142  -5.2123  -5.2059  -5.1965
    -5.1904  -5.1252  -5.1138  -5.1017  -5.0590  -5.0387  -5.0315  -5.0262
    -5.0202  -5.0140  -5.0074  -5.0058  -5.0016  -4.9890  -4.9855  -4.9763
    -4.1199  -3.9975  -3.8464  -3.7755  -3.7008  -3.5982  -3.4770  -3.3442
    -0.4638  -0.4087  -0.3488  -0.2874  -0.2145  -0.1666  -0.1297  -0.0517
     0.0085   0.0354   0.1251   0.1812   0.3033   0.3350   0.3954   0.4291
     0.4883   0.5147   0.5381   0.5656   0.6000   0.6280   0.6652   0.6874
     0.8379   0.8686   0.9239   0.9386   0.9629   1.0076   1.0629   1.0835
     1.1110   1.1305   1.1653   1.1835   1.1980   1.2735   1.2875   1.3246
     1.3574   1.4129   1.4544   1.4778   1.5110   1.5483   1.5806   1.6352
     1.6396   1.6609   1.6833   1.7053   1.7242   1.7683   1.7945   1.8069
     1.8264   1.8558   1.8719   1.9080   1.9278   1.9565   1.9769   1.9992
     2.0303   2.0410   2.0820   2.0989   2.1515   2.1629   2.2736   2.3503

          k =-0.1250-0.1250 0.1250 (132670 PWs)   bands (ev):

   -18.6014 -18.4519 -18.4266 -18.3990 -18.3904 -18.3876 -18.3814 -18.3714
   -18.3451 -18.3068 -18.3048 -18.3003 -18.2911 -18.2868 -18.2855 -18.2816
   -18.2810 -18.2783 -18.2781 -18.2767 -18.2761 -18.2720 -18.2717 -18.2683
   -18.2675 -18.2651 -18.2650 -18.2603 -18.2568 -18.2512 -18.2503 -18.2454
   -18.2423 -18.2391 -18.2357 -18.2351 -18.2311 -18.2284 -18.2251 -18.2209
   -18.2208 -18.2165 -18.2026 -18.2022 -18.1954 -18.1918 -18.1820 -18.1771
    -9.6340  -9.4084  -9.2837  -9.1621  -9.1176  -9.0941  -9.0136  -9.0082
    -8.9663  -8.9473  -8.9039  -8.8988  -8.8654  -8.8412  -8.8094  -8.7887
    -8.7643  -8.7416  -8.7195  -8.6917  -8.6663  -8.6068  -8.5535  -8.4122
    -5.3690  -5.3481  -5.3448  -5.2394  -5.2142  -5.2130  -5.2050  -5.1967
    -5.1903  -5.1254  -5.1140  -5.1014  -5.0605  -5.0387  -5.0312  -5.0255
    -5.0205  -5.0140  -5.0079  -5.0057  -5.0025  -4.9879  -4.9861  -4.9758
    -4.4760  -3.9945  -3.9627  -3.8674  -3.3964  -3.3848  -3.3502  -2.7531
    -0.7808  -0.7150  -0.6637  -0.6325  -0.6046  -0.5425  -0.4804  -0.4485
    -0.3853  -0.2996  -0.2457  -0.1891   0.4081   0.4569   0.4922   0.6272
     0.6500   0.6722   0.7330   0.7589   0.8023   0.8854   0.9202   0.9622
     1.0135   1.0370   1.0624   1.0968   1.1120   1.1511   1.1795   1.2074
     1.2368   1.2680   1.2759   1.3081   1.3308   1.3395   1.3844   1.3888
     1.4056   1.4265   1.4500   1.4701   1.4981   1.5222   1.5361   1.5639
     1.5802   1.6067   1.6224   1.6638   1.6765   1.7075   1.7141   1.7475
     1.7780   1.8163   1.9190   1.9800   1.9920   2.0235   2.0735   2.1180
     2.1607   2.1815   2.2672   2.3201   2.5657   2.6720   2.7509   3.0661

          k =-0.1250 0.1250-0.1250 (132670 PWs)   bands (ev):

   -18.6014 -18.4519 -18.4266 -18.3990 -18.3904 -18.3876 -18.3814 -18.3714
   -18.3451 -18.3068 -18.3048 -18.3003 -18.2911 -18.2868 -18.2855 -18.2816
   -18.2810 -18.2783 -18.2781 -18.2767 -18.2761 -18.2720 -18.2717 -18.2683
   -18.2675 -18.2651 -18.2650 -18.2603 -18.2568 -18.2512 -18.2503 -18.2454
   -18.2423 -18.2391 -18.2357 -18.2351 -18.2311 -18.2284 -18.2251 -18.2209
   -18.2208 -18.2165 -18.2026 -18.2022 -18.1954 -18.1918 -18.1820 -18.1771
    -9.6340  -9.4092  -9.2819  -9.1624  -9.1194  -9.0899  -9.0289  -9.0002
    -8.9691  -8.9397  -8.9043  -8.8951  -8.8704  -8.8377  -8.8132  -8.7851
    -8.7674  -8.7372  -8.7238  -8.6932  -8.6640  -8.6067  -8.5541  -8.4121
    -5.3690  -5.3481  -5.3448  -5.2394  -5.2144  -5.2129  -5.2051  -5.1967
    -5.1903  -5.1255  -5.1139  -5.1015  -5.0604  -5.0387  -5.0312  -5.0254
    -5.0204  -5.0137  -5.0082  -5.0059  -5.0024  -4.9877  -4.9866  -4.9755
    -4.4762  -3.9962  -3.9594  -3.8675  -3.3936  -3.3875  -3.3542  -2.7493
    -0.8023  -0.7098  -0.6549  -0.6430  -0.5879  -0.5324  -0.4980  -0.4465
    -0.3847  -0.2855  -0.2440  -0.2005   0.4060   0.4566   0.4957   0.6251
     0.6524   0.6725   0.7332   0.7651   0.8049   0.9051   0.9306   0.9474
     0.9905   1.0379   1.0728   1.0900   1.1118   1.1386   1.1830   1.2144
     1.2257   1.2576   1.2784   1.3138   1.3265   1.3623   1.3806   1.3896
     1.4123   1.4259   1.4504   1.4668   1.4914   1.5207   1.5463   1.5617
     1.5997   1.6211   1.6283   1.6402   1.6684   1.7025   1.7190   1.7333
     1.7746   1.8073   1.9003   1.9718   1.9958   2.0457   2.0747   2.1125
     2.1640   2.1931   2.2517   2.3265   2.5523   2.6730   2.7662   3.0778

          k = 0.1250-0.1250-0.1250 (132670 PWs)   bands (ev):

   -18.6014 -18.4519 -18.4266 -18.3990 -18.3904 -18.3876 -18.3814 -18.3714
   -18.3451 -18.3068 -18.3048 -18.3003 -18.2911 -18.2868 -18.2855 -18.2816
   -18.2810 -18.2783 -18.2781 -18.2767 -18.2761 -18.2720 -18.2717 -18.2683
   -18.2675 -18.2651 -18.2650 -18.2603 -18.2568 -18.2512 -18.2503 -18.2454
   -18.2423 -18.2391 -18.2357 -18.2351 -18.2311 -18.2284 -18.2251 -18.2209
   -18.2208 -18.2165 -18.2026 -18.2022 -18.1954 -18.1918 -18.1820 -18.1771
    -9.6339  -9.4092  -9.2822  -9.1625  -9.1158  -9.0992  -9.0183  -8.9973
    -8.9686  -8.9446  -8.9135  -8.8885  -8.8729  -8.8386  -8.8076  -8.7883
    -8.7683  -8.7385  -8.7202  -8.6936  -8.6643  -8.6064  -8.5544  -8.4121
    -5.3690  -5.3481  -5.3448  -5.2391  -5.2146  -5.2131  -5.2054  -5.1962
    -5.1903  -5.1253  -5.1140  -5.1015  -5.0604  -5.0388  -5.0312  -5.0254
    -5.0205  -5.0133  -5.0080  -5.0057  -5.0026  -4.9878  -4.9867  -4.9755
    -4.4737  -4.0287  -3.9324  -3.8607  -3.4343  -3.3851  -3.3145  -2.7552
    -0.8078  -0.7337  -0.6355  -0.6067  -0.5805  -0.5472  -0.5080  -0.4631
    -0.3838  -0.2903  -0.2378  -0.1884   0.4074   0.4576   0.5009   0.6197
     0.6441   0.6861   0.7296   0.7553   0.8062   0.8947   0.9173   0.9404
     1.0060   1.0416   1.0614   1.0952   1.1166   1.1634   1.1764   1.1911
     1.2265   1.2539   1.2975   1.3190   1.3339   1.3583   1.3769   1.3894
     1.4142   1.4228   1.4475   1.4648   1.4739   1.5269   1.5484   1.5714
     1.5908   1.6057   1.6220   1.6446   1.6721   1.6942   1.7232   1.7467
     1.7836   1.8154   1.9179   1.9711   1.9807   2.0298   2.0858   2.1162
     2.1645   2.1966   2.2439   2.3284   2.5445   2.6819   2.7678   3.0830

          k =-0.1250-0.1250 0.3750 (132608 PWs)   bands (ev):

   -18.6014 -18.4519 -18.4266 -18.3990 -18.3904 -18.3876 -18.3814 -18.3714
   -18.3451 -18.3068 -18.3048 -18.3003 -18.2911 -18.2868 -18.2855 -18.2816
   -18.2810 -18.2783 -18.2781 -18.2767 -18.2761 -18.2720 -18.2717 -18.2683
   -18.2675 -18.2651 -18.2650 -18.2603 -18.2568 -18.2512 -18.2503 -18.2454
   -18.2423 -18.2391 -18.2357 -18.2351 -18.2311 -18.2284 -18.2251 -18.2209
   -18.2208 -18.2165 -18.2026 -18.2022 -18.1954 -18.1918 -18.1820 -18.1771
    -9.6327  -9.3993  -9.2917  -9.1522  -9.1230  -9.0973  -9.0526  -9.0077
    -8.9685  -8.9453  -8.9050  -8.8835  -8.8556  -8.8424  -8.8064  -8.7765
    -8.7540  -8.7426  -8.7061  -8.6933  -8.6774  -8.6139  -8.5586  -8.4134
    -5.3690  -5.3480  -5.3448  -5.2391  -5.2139  -5.2125  -5.2052  -5.1972
    -5.1904  -5.1254  -5.1140  -5.1014  -5.0609  -5.0382  -5.0311  -5.0254
    -5.0204  -5.0142  -5.0079  -5.0059  -5.0027  -4.9882  -4.9863  -4.9762
    -4.3593  -4.1305  -3.8494  -3.7781  -3.5735  -3.5248  -3.2367  -2.9557
    -0.7869  -0.7078  -0.6271  -0.5700  -0.5156  -0.4623  -0.4082  -0.2868
    -0.1308  -0.1026  -0.0053   0.1173   0.3947   0.4352   0.4768   0.5150
     0.5650   0.6183   0.6337   0.6679   0.6985   0.7573   0.7875   0.8105
     0.8878   0.9384   0.9620   1.0483   1.0764   1.1089   1.1560   1.1870
     1.2286   1.2452   1.2661   1.2921   1.3331   1.3439   1.3534   1.3850
     1.4281   1.4466   1.4757   1.4938   1.5164   1.5457   1.5534   1.5613
     1.5904   1.6081   1.6359   1.6641   1.6897   1.7202   1.7467   1.7597
     1.8033   1.8312   1.8754   1.9219   1.9392   1.9752   2.0087   2.0368
     2.1397   2.1856   2.2554   2.3181   2.3931   2.4687   2.6669   2.8486

          k =-0.1250 0.1250-0.3750 (132608 PWs)   bands (ev):

   -18.6014 -18.4519 -18.4266 -18.3990 -18.3904 -18.3876 -18.3814 -18.3714
   -18.3451 -18.3068 -18.3048 -18.3003 -18.2911 -18.2868 -18.2855 -18.2816
   -18.2810 -18.2783 -18.2781 -18.2767 -18.2761 -18.2720 -18.2717 -18.2683
   -18.2675 -18.2651 -18.2650 -18.2603 -18.2568 -18.2512 -18.2503 -18.2454
   -18.2423 -18.2391 -18.2357 -18.2351 -18.2311 -18.2284 -18.2251 -18.2209
   -18.2208 -18.2165 -18.2026 -18.2022 -18.1954 -18.1918 -18.1820 -18.1771
    -9.6327  -9.3999  -9.2912  -9.1511  -9.1201  -9.0918  -9.0671  -9.0055
    -8.9777  -8.9280  -8.9079  -8.8825  -8.8602  -8.8371  -8.8122  -8.7709
    -8.7560  -8.7438  -8.7117  -8.6890  -8.6762  -8.6140  -8.5592  -8.4133
    -5.3690  -5.3480  -5.3448  -5.2391  -5.2140  -5.2125  -5.2053  -5.1971
    -5.1903  -5.1254  -5.1139  -5.1015  -5.0608  -5.0382  -5.0311  -5.0254
    -5.0203  -5.0139  -5.0081  -5.0060  -5.0027  -4.9879  -4.9869  -4.9758
    -4.3604  -4.1272  -3.8553  -3.7745  -3.5646  -3.5340  -3.2409  -2.9504
    -0.8027  -0.6881  -0.6283  -0.5669  -0.5343  -0.4583  -0.4099  -0.2844
    -0.1149  -0.0987  -0.0141   0.1089   0.3957   0.4346   0.4758   0.5106
     0.5730   0.6333   0.6466   0.6706   0.7007   0.7358   0.7751   0.8185
     0.8942   0.9372   0.9561   1.0488   1.1006   1.1300   1.1537   1.1708
     1.1977   1.2406   1.2643   1.2751   1.3125   1.3530   1.3698   1.3966
     1.4358   1.4510   1.4778   1.5067   1.5171   1.5406   1.5505   1.5726
     1.5787   1.6120   1.6342   1.6631   1.6928   1.7258   1.7443   1.7604
     1.7834   1.8145   1.8650   1.9008   1.9531   1.9882   2.0077   2.0428
     2.1407   2.1825   2.2616   2.3185   2.3834   2.4742   2.6837   2.8502

          k = 0.1250-0.1250-0.3750 (132608 PWs)   bands (ev):

   -18.6014 -18.4519 -18.4266 -18.3990 -18.3904 -18.3876 -18.3814 -18.3714
   -18.3451 -18.3068 -18.3048 -18.3003 -18.2911 -18.2868 -18.2855 -18.2816
   -18.2810 -18.2783 -18.2781 -18.2767 -18.2761 -18.2720 -18.2717 -18.2683
   -18.2675 -18.2651 -18.2650 -18.2603 -18.2568 -18.2512 -18.2503 -18.2454
   -18.2423 -18.2391 -18.2357 -18.2351 -18.2311 -18.2284 -18.2251 -18.2209
   -18.2208 -18.2165 -18.2026 -18.2022 -18.1954 -18.1918 -18.1820 -18.1771
    -9.6326  -9.3999  -9.2916  -9.1459  -9.1265  -9.1004  -9.0550  -9.0059
    -8.9683  -8.9396  -8.9110  -8.8781  -8.8623  -8.8391  -8.8053  -8.7758
    -8.7593  -8.7407  -8.7071  -8.6914  -8.6767  -8.6135  -8.5596  -8.4133
    -5.3690  -5.3480  -5.3447  -5.2388  -5.2142  -5.2128  -5.2056  -5.1966
    -5.1903  -5.1252  -5.1140  -5.1015  -5.0609  -5.0382  -5.0311  -5.0254
    -5.0204  -5.0136  -5.0079  -5.0058  -5.0029  -4.9880  -4.9871  -4.9758
    -4.3526  -4.1469  -3.8372  -3.7667  -3.5901  -3.5340  -3.2163  -2.9639
    -0.8051  -0.6985  -0.6126  -0.5742  -0.5320  -0.4425  -0.4237  -0.2859
    -0.1225  -0.0940  -0.0057   0.1204   0.3995   0.4347   0.4762   0.5225
     0.5740   0.5987   0.6468   0.6695   0.7062   0.7238   0.7738   0.8173
     0.8873   0.9018   0.9755   1.0605   1.1036   1.1386   1.1629   1.1728
     1.2026   1.2348   1.2576   1.2891   1.3297   1.3505   1.3691   1.4033
     1.4242   1.4290   1.4822   1.5134   1.5233   1.5372   1.5483   1.5552
     1.5821   1.6011   1.6321   1.6786   1.6992   1.7179   1.7263   1.7495
     1.8021   1.8242   1.8773   1.9068   1.9529   1.9821   2.0115   2.0442
     2.1315   2.1926   2.2496   2.3170   2.3843   2.4806   2.6859   2.8503

          k = 0.3750-0.1250 0.1250 (132608 PWs)   bands (ev):

   -18.6014 -18.4519 -18.4266 -18.3990 -18.3904 -18.3876 -18.3814 -18.3714
   -18.3451 -18.3068 -18.3048 -18.3003 -18.2911 -18.2868 -18.2855 -18.2816
   -18.2810 -18.2783 -18.2781 -18.2767 -18.2761 -18.2720 -18.2717 -18.2683
   -18.2675 -18.2651 -18.2650 -18.2603 -18.2568 -18.2512 -18.2503 -18.2454
   -18.2423 -18.2391 -18.2357 -18.2351 -18.2311 -18.2284 -18.2251 -18.2209
   -18.2208 -18.2165 -18.2026 -18.2022 -18.1954 -18.1918 -18.1820 -18.1771
    -9.6311  -9.4070  -9.2766  -9.1839  -9.1197  -9.0802  -9.0508  -9.0096
    -8.9674  -8.9279  -8.9021  -8.8882  -8.8705  -8.8306  -8.8073  -8.7868
    -8.7502  -8.7336  -8.7239  -8.7045  -8.6674  -8.6103  -8.5543  -8.4152
    -5.3690  -5.3481  -5.3448  -5.2393  -5.2141  -5.2126  -5.2049  -5.1966
    -5.1904  -5.1255  -5.1140  -5.1017  -5.0599  -5.0385  -5.0312  -5.0254
    -5.0205  -5.0136  -5.0086  -5.0055  -5.0019  -4.9886  -4.9865  -4.9759
    -4.3533  -4.1063  -3.8833  -3.7738  -3.5586  -3.5437  -3.2499  -2.9643
    -0.7190  -0.6471  -0.6043  -0.5498  -0.5323  -0.4252  -0.3841  -0.2856
    -0.2204  -0.0959  -0.0455   0.0819   0.3744   0.4453   0.4908   0.5125
     0.5456   0.5862   0.6254   0.6705   0.7070   0.7328   0.7708   0.7960
     0.8509   0.9599   0.9907   1.0545   1.0912   1.1033   1.1342   1.1838
     1.2281   1.2433   1.2516   1.2940   1.3166   1.3575   1.3720   1.3906
     1.4143   1.4406   1.4510   1.4943   1.5062   1.5237   1.5610   1.5873
     1.6088   1.6346   1.6433   1.6789   1.7005   1.7277   1.7554   1.7738
     1.7982   1.8462   1.8948   1.9080   1.9392   2.0142   2.0511   2.0654
     2.0947   2.1580   2.1874   2.3132   2.3461   2.4442   2.7322   2.8327

          k =-0.3750-0.1250-0.1250 (132608 PWs)   bands (ev):

   -18.6014 -18.4519 -18.4266 -18.3990 -18.3904 -18.3876 -18.3814 -18.3714
   -18.3451 -18.3068 -18.3048 -18.3003 -18.2911 -18.2868 -18.2855 -18.2816
   -18.2810 -18.2783 -18.2781 -18.2767 -18.2761 -18.2720 -18.2717 -18.2683
   -18.2675 -18.2651 -18.2650 -18.2603 -18.2568 -18.2512 -18.2503 -18.2454
   -18.2423 -18.2391 -18.2357 -18.2351 -18.2311 -18.2284 -18.2251 -18.2209
   -18.2208 -18.2165 -18.2026 -18.2022 -18.1954 -18.1918 -18.1820 -18.1771
    -9.6311  -9.4062  -9.2770  -9.1852  -9.1207  -9.0924  -9.0272  -9.0103
    -8.9645  -8.9367  -8.9145  -8.8852  -8.8644  -8.8325  -8.8054  -8.7848
    -8.7527  -8.7371  -8.7227  -8.6992  -8.6694  -8.6107  -8.5541  -8.4152
    -5.3690  -5.3480  -5.3448  -5.2390  -5.2143  -5.2129  -5.2052  -5.1963
    -5.1903  -5.1255  -5.1141  -5.1016  -5.0601  -5.0386  -5.0313  -5.0254
    -5.0205  -5.0139  -5.0080  -5.0053  -5.0018  -4.9885  -4.9863  -4.9764
    -4.3524  -4.1023  -3.9000  -3.7610  -3.5971  -3.5008  -3.2499  -2.9705
    -0.7451  -0.6145  -0.5918  -0.5545  -0.5239  -0.4410  -0.3774  -0.3055
    -0.2185  -0.0852  -0.0406   0.0697   0.3821   0.4433   0.4916   0.5197
     0.5266   0.5903   0.6366   0.6716   0.6918   0.7337   0.7676   0.7896
     0.8593   0.9564   0.9999   1.0612   1.0899   1.0972   1.1570   1.1754
     1.2080   1.2259   1.2496   1.2952   1.3157   1.3547   1.3782   1.3957
     1.4317   1.4391   1.4653   1.4827   1.5140   1.5254   1.5444   1.5896
     1.6213   1.6345   1.6586   1.6790   1.6959   1.7258   1.7398   1.7653
     1.7870   1.8483   1.8959   1.9133   1.9509   2.0032   2.0375   2.0695
     2.1111   2.1554   2.1871   2.3197   2.3533   2.4488   2.7250   2.8293

          k = 0.3750 0.1250-0.1250 (132608 PWs)   bands (ev):

   -18.6014 -18.4519 -18.4266 -18.3990 -18.3904 -18.3876 -18.3814 -18.3714
   -18.3451 -18.3068 -18.3048 -18.3003 -18.2911 -18.2868 -18.2855 -18.2816
   -18.2810 -18.2783 -18.2781 -18.2767 -18.2761 -18.2720 -18.2717 -18.2683
   -18.2675 -18.2651 -18.2650 -18.2603 -18.2568 -18.2512 -18.2503 -18.2454
   -18.2423 -18.2391 -18.2357 -18.2351 -18.2311 -18.2284 -18.2251 -18.2209
   -18.2208 -18.2165 -18.2026 -18.2022 -18.1954 -18.1918 -18.1820 -18.1771
    -9.6311  -9.4061  -9.2789  -9.1828  -9.1169  -9.0902  -9.0363  -9.0131
    -8.9677  -8.9287  -8.9033  -8.8967  -8.8613  -8.8334  -8.8081  -8.7849
    -8.7542  -8.7296  -8.7236  -8.7027  -8.6699  -8.6105  -8.5537  -8.4153
    -5.3690  -5.3481  -5.3448  -5.2393  -5.2140  -5.2127  -5.2049  -5.1966
    -5.1904  -5.1255  -5.1142  -5.1015  -5.0600  -5.0386  -5.0312  -5.0254
    -5.0206  -5.0140  -5.0083  -5.0053  -5.0018  -4.9887  -4.9861  -4.9763
    -4.3527  -4.1075  -3.8847  -3.7715  -3.5669  -3.5370  -3.2426  -2.9712
    -0.7106  -0.6436  -0.6056  -0.5530  -0.5284  -0.4202  -0.3794  -0.3223
    -0.2155  -0.0772  -0.0367   0.0668   0.3785   0.4429   0.4901   0.5069
     0.5256   0.5905   0.6359   0.6600   0.7037   0.7396   0.7650   0.7975
     0.8663   0.9597   1.0003   1.0459   1.0836   1.1106   1.1475   1.1670
     1.2320   1.2443   1.2619   1.3037   1.3257   1.3341   1.3603   1.3958
     1.4121   1.4351   1.4666   1.4918   1.5106   1.5420   1.5482   1.5698
     1.5851   1.6192   1.6609   1.6849   1.7157   1.7335   1.7572   1.7715
     1.7924   1.8605   1.8862   1.9247   1.9555   1.9912   2.0375   2.0799
     2.0966   2.1499   2.2075   2.2780   2.3625   2.4548   2.7255   2.8208

          k =-0.3750 0.1250 0.1250 (132608 PWs)   bands (ev):

   -18.6014 -18.4519 -18.4266 -18.3990 -18.3904 -18.3876 -18.3814 -18.3714
   -18.3451 -18.3068 -18.3048 -18.3003 -18.2911 -18.2868 -18.2855 -18.2816
   -18.2810 -18.2783 -18.2781 -18.2767 -18.2761 -18.2720 -18.2717 -18.2683
   -18.2675 -18.2651 -18.2650 -18.2603 -18.2568 -18.2512 -18.2503 -18.2454
   -18.2423 -18.2391 -18.2357 -18.2351 -18.2311 -18.2284 -18.2251 -18.2209
   -18.2208 -18.2165 -18.2026 -18.2022 -18.1954 -18.1918 -18.1820 -18.1771
    -9.6310  -9.4069  -9.2766  -9.1830  -9.1266  -9.0861  -9.0278  -9.0113
    -8.9639  -8.9400  -8.9140  -8.8830  -8.8671  -8.8289  -8.8065  -8.7847
    -8.7569  -8.7329  -8.7190  -8.7041  -8.6685  -8.6103  -8.5546  -8.4152
    -5.3690  -5.3481  -5.3448  -5.2390  -5.2144  -5.2128  -5.2052  -5.1962
    -5.1904  -5.1253  -5.1142  -5.1017  -5.0600  -5.0386  -5.0312  -5.0254
    -5.0206  -5.0133  -5.0083  -5.0055  -5.0019  -4.9887  -4.9866  -4.9760
    -4.3501  -4.1086  -3.8955  -3.7610  -3.6013  -3.4976  -3.2476  -2.9721
    -0.7473  -0.6143  -0.5947  -0.5430  -0.5286  -0.4414  -0.3997  -0.3052
    -0.1898  -0.0889  -0.0414   0.0765   0.3672   0.4460   0.4919   0.5147
     0.5437   0.5870   0.6188   0.6793   0.6885   0.7391   0.7654   0.8069
     0.8517   0.9645   0.9977   1.0375   1.0717   1.1080   1.1510   1.1839
     1.2080   1.2470   1.2669   1.3095   1.3253   1.3450   1.3639   1.3695
     1.4161   1.4417   1.4593   1.4961   1.5069   1.5370   1.5478   1.5851
     1.6098   1.6226   1.6485   1.6801   1.6987   1.7374   1.7654   1.7767
     1.7952   1.8285   1.8904   1.9244   1.9533   1.9962   2.0510   2.0691
     2.0933   2.1635   2.1993   2.2855   2.3480   2.4595   2.7356   2.8334

          k =-0.1250 0.3750 0.1250 (132608 PWs)   bands (ev):

   -18.6014 -18.4519 -18.4266 -18.3990 -18.3904 -18.3876 -18.3814 -18.3714
   -18.3451 -18.3068 -18.3048 -18.3003 -18.2911 -18.2868 -18.2855 -18.2816
   -18.2810 -18.2783 -18.2781 -18.2767 -18.2761 -18.2720 -18.2717 -18.2683
   -18.2675 -18.2651 -18.2650 -18.2603 -18.2568 -18.2512 -18.2503 -18.2454
   -18.2423 -18.2391 -18.2357 -18.2351 -18.2311 -18.2284 -18.2251 -18.2209
   -18.2208 -18.2165 -18.2026 -18.2022 -18.1954 -18.1918 -18.1820 -18.1771
    -9.6316  -9.4079  -9.2781  -9.1607  -9.1309  -9.1062  -9.0237  -8.9892
    -8.9699  -8.9484  -8.9210  -8.8952  -8.8665  -8.8371  -8.7941  -8.7765
    -8.7646  -8.7400  -8.7136  -8.6952  -8.6565  -8.6193  -8.5587  -8.4141
    -5.3690  -5.3480  -5.3447  -5.2388  -5.2144  -5.2121  -5.2060  -5.1966
    -5.1905  -5.1252  -5.1140  -5.1017  -5.0593  -5.0387  -5.0317  -5.0255
    -5.0208  -5.0130  -5.0084  -5.0057  -5.0020  -4.9885  -4.9862  -4.9762
    -4.3467  -4.1491  -3.8023  -3.7896  -3.5791  -3.5605  -3.2179  -2.9813
    -0.7950  -0.6730  -0.6101  -0.5629  -0.5401  -0.4824  -0.3448  -0.2691
    -0.1963  -0.0698   0.0168   0.0812   0.3816   0.4533   0.4845   0.5290
     0.5737   0.6060   0.6443   0.6700   0.6904   0.7415   0.8062   0.8242
     0.8828   0.9248   1.0127   1.0295   1.0659   1.1074   1.1470   1.1819
     1.2124   1.2618   1.2926   1.3059   1.3191   1.3523   1.3620   1.3902
     1.4170   1.4321   1.4540   1.4811   1.5107   1.5185   1.5460   1.5598
     1.5950   1.6199   1.6442   1.6498   1.7000   1.7099   1.7387   1.7786
     1.8129   1.8365   1.8732   1.9061   1.9670   1.9830   2.0217   2.0516
     2.1024   2.1829   2.2077   2.2804   2.3457   2.4657   2.6959   2.7993

          k =-0.1250-0.3750-0.1250 (132608 PWs)   bands (ev):

   -18.6014 -18.4519 -18.4266 -18.3990 -18.3904 -18.3876 -18.3814 -18.3714
   -18.3451 -18.3068 -18.3048 -18.3003 -18.2911 -18.2868 -18.2855 -18.2816
   -18.2810 -18.2783 -18.2781 -18.2767 -18.2761 -18.2720 -18.2717 -18.2683
   -18.2675 -18.2651 -18.2650 -18.2603 -18.2568 -18.2512 -18.2503 -18.2454
   -18.2423 -18.2391 -18.2357 -18.2351 -18.2311 -18.2284 -18.2251 -18.2209
   -18.2208 -18.2165 -18.2026 -18.2022 -18.1954 -18.1918 -18.1820 -18.1771
    -9.6318  -9.4074  -9.2778  -9.1570  -9.1364  -9.1094  -9.0194  -8.9911
    -8.9670  -8.9447  -8.9230  -8.8924  -8.8747  -8.8362  -8.7916  -8.7772
    -8.7638  -8.7404  -8.7143  -8.6948  -8.6575  -8.6189  -8.5581  -8.4142
    -5.3690  -5.3480  -5.3447  -5.2388  -5.2143  -5.2123  -5.2060  -5.1967
    -5.1903  -5.1254  -5.1139  -5.1017  -5.0594  -5.0387  -5.0318  -5.0256
    -5.0206  -5.0136  -5.0081  -5.0056  -5.0018  -4.9884  -4.9858  -4.9766
    -4.3484  -4.1477  -3.8090  -3.7728  -3.5892  -3.5640  -3.2132  -2.9822
    -0.7836  -0.6825  -0.6265  -0.5545  -0.5238  -0.4943  -0.3371  -0.2706
    -0.1906  -0.0750   0.0049   0.0817   0.3802   0.4616   0.4885   0.5250
     0.5745   0.5996   0.6486   0.6737   0.6990   0.7250   0.7921   0.8228
     0.8862   0.9418   1.0002   1.0580   1.0738   1.1008   1.1352   1.1913
     1.2038   1.2554   1.2657   1.3005   1.3212   1.3438   1.3741   1.4017
     1.4237   1.4458   1.4629   1.4827   1.5008   1.5299   1.5457   1.5844
     1.6008   1.6075   1.6405   1.6639   1.6775   1.7058   1.7379   1.7668
     1.8128   1.8186   1.8845   1.9033   1.9669   1.9852   1.9974   2.0589
     2.1039   2.1674   2.2329   2.2904   2.3653   2.4623   2.6869   2.7839

          k = 0.1250 0.3750-0.1250 (132608 PWs)   bands (ev):

   -18.6014 -18.4519 -18.4266 -18.3990 -18.3904 -18.3876 -18.3814 -18.3714
   -18.3451 -18.3068 -18.3048 -18.3003 -18.2911 -18.2868 -18.2855 -18.2816
   -18.2810 -18.2783 -18.2781 -18.2767 -18.2761 -18.2720 -18.2717 -18.2683
   -18.2675 -18.2651 -18.2650 -18.2603 -18.2568 -18.2512 -18.2503 -18.2454
   -18.2423 -18.2391 -18.2357 -18.2351 -18.2311 -18.2284 -18.2251 -18.2209
   -18.2208 -18.2165 -18.2026 -18.2022 -18.1954 -18.1918 -18.1820 -18.1771
    -9.6318  -9.4070  -9.2799  -9.1599  -9.1317  -9.1029  -9.0222  -8.9986
    -8.9662  -8.9475  -8.9200  -8.8965  -8.8638  -8.8381  -8.7940  -8.7783
    -8.7628  -8.7412  -8.7120  -8.6945  -8.6584  -8.6197  -8.5577  -8.4142
    -5.3689  -5.3480  -5.3448  -5.2390  -5.2141  -5.2119  -5.2056  -5.1972
    -5.1905  -5.1253  -5.1140  -5.1016  -5.0593  -5.0387  -5.0317  -5.0256
    -5.0208  -5.0137  -5.0082  -5.0056  -5.0018  -4.9885  -4.9856  -4.9765
    -4.3543  -4.1300  -3.8371  -3.7795  -3.5665  -3.5484  -3.2371  -2.9738
    -0.7855  -0.6689  -0.6143  -0.5588  -0.5414  -0.4892  -0.3304  -0.2738
    -0.2088  -0.0711  -0.0048   0.0863   0.3775   0.4516   0.4859   0.5284
     0.5840   0.5902   0.6603   0.6731   0.7163   0.7287   0.8002   0.8287
     0.8841   0.9405   0.9872   1.0246   1.0826   1.1034   1.1496   1.1794
     1.2293   1.2598   1.2736   1.2956   1.3288   1.3459   1.3808   1.3954
     1.4042   1.4201   1.4508   1.4858   1.5064   1.5388   1.5452   1.5752
     1.5911   1.6009   1.6314   1.6660   1.6897   1.7111   1.7428   1.7807
     1.8153   1.8329   1.8758   1.9202   1.9580   1.9994   2.0105   2.0399
     2.1071   2.1615   2.2179   2.2888   2.3648   2.4572   2.6904   2.7823

          k = 0.1250-0.3750 0.1250 (132608 PWs)   bands (ev):

   -18.6014 -18.4519 -18.4266 -18.3990 -18.3904 -18.3876 -18.3814 -18.3714
   -18.3451 -18.3068 -18.3048 -18.3003 -18.2911 -18.2868 -18.2855 -18.2816
   -18.2810 -18.2783 -18.2781 -18.2767 -18.2761 -18.2720 -18.2717 -18.2683
   -18.2675 -18.2651 -18.2650 -18.2603 -18.2568 -18.2512 -18.2503 -18.2454
   -18.2423 -18.2391 -18.2357 -18.2351 -18.2311 -18.2284 -18.2251 -18.2209
   -18.2208 -18.2165 -18.2026 -18.2022 -18.1954 -18.1918 -18.1820 -18.1771
    -9.6317  -9.4081  -9.2770  -9.1612  -9.1258  -9.1120  -9.0255  -8.9957
    -8.9642  -8.9460  -8.9171  -8.8942  -8.8730  -8.8358  -8.7910  -8.7792
    -8.7620  -8.7407  -8.7143  -8.6971  -8.6558  -8.6194  -8.5583  -8.4142
    -5.3689  -5.3480  -5.3447  -5.2390  -5.2142  -5.2118  -5.2057  -5.1972
    -5.1905  -5.1254  -5.1138  -5.1017  -5.0592  -5.0386  -5.0318  -5.0256
    -5.0207  -5.0132  -5.0087  -5.0059  -5.0019  -4.9884  -4.9860  -4.9762
    -4.3541  -4.1330  -3.8242  -3.7825  -3.5696  -3.5562  -3.2373  -2.9689
    -0.7920  -0.6791  -0.6137  -0.5648  -0.5126  -0.4902  -0.3449  -0.2764
    -0.2071  -0.0675   0.0098   0.0787   0.3757   0.4446   0.4814   0.5457
     0.5869   0.5992   0.6469   0.6682   0.7093   0.7638   0.8008   0.8261
     0.8757   0.9335   0.9955   1.0353   1.0580   1.0915   1.1358   1.1944
     1.2138   1.2645   1.2757   1.3130   1.3322   1.3534   1.3709   1.3854
     1.4091   1.4425   1.4502   1.4790   1.5006   1.5135   1.5561   1.5771
     1.5932   1.6130   1.6404   1.6629   1.6934   1.7098   1.7512   1.7570
     1.8028   1.8363   1.8690   1.9181   1.9432   1.9932   2.0248   2.0491
     2.1085   2.1686   2.2310   2.2628   2.3723   2.4590   2.6922   2.7899

          k =-0.1250-0.3750 0.3750 (132616 PWs)   bands (ev):

   -18.6014 -18.4519 -18.4266 -18.3990 -18.3904 -18.3876 -18.3814 -18.3714
   -18.3451 -18.3068 -18.3048 -18.3003 -18.2911 -18.2868 -18.2855 -18.2816
   -18.2810 -18.2783 -18.2781 -18.2767 -18.2761 -18.2720 -18.2717 -18.2683
   -18.2675 -18.2651 -18.2650 -18.2603 -18.2568 -18.2512 -18.2503 -18.2454
   -18.2423 -18.2391 -18.2357 -18.2351 -18.2311 -18.2284 -18.2251 -18.2209
   -18.2208 -18.2165 -18.2026 -18.2022 -18.1954 -18.1918 -18.1820 -18.1771
    -9.6306  -9.3988  -9.2857  -9.1499  -9.1273  -9.1101  -9.0600  -9.0170
    -8.9604  -8.9435  -8.9257  -8.8765  -8.8545  -8.8344  -8.7824  -8.7724
    -8.7536  -8.7341  -8.7209  -8.6927  -8.6688  -8.6239  -8.5603  -8.4157
    -5.3689  -5.3480  -5.3447  -5.2393  -5.2141  -5.2120  -5.2056  -5.1966
    -5.1903  -5.1254  -5.1142  -5.1017  -5.0595  -5.0386  -5.0315  -5.0261
    -5.0202  -5.0137  -5.0079  -5.0059  -5.0021  -4.9888  -4.9855  -4.9767
    -4.2516  -4.0418  -3.9533  -3.7482  -3.6363  -3.4532  -3.4104  -3.1409
    -0.7909  -0.6008  -0.5504  -0.4459  -0.3484  -0.2596  -0.1592  -0.1169
    -0.0399  -0.0148   0.0736   0.1722   0.3143   0.4095   0.4645   0.5046
     0.5415   0.5691   0.5832   0.6224   0.6724   0.6849   0.6972   0.7487
     0.8088   0.8852   0.9205   0.9718   1.0057   1.0446   1.1012   1.1375
     1.1718   1.2013   1.2242   1.2412   1.2842   1.3122   1.3371   1.3600
     1.4197   1.4488   1.4726   1.4875   1.5069   1.5303   1.5512   1.5848
     1.5965   1.6366   1.6596   1.6891   1.7155   1.7318   1.7473   1.7916
     1.8389   1.8553   1.8809   1.8914   1.9203   1.9540   1.9814   1.9965
     2.0718   2.1208   2.1306   2.2216   2.2837   2.4025   2.4454   2.5551

          k =-0.1250 0.3750-0.3750 (132616 PWs)   bands (ev):

   -18.6014 -18.4519 -18.4266 -18.3990 -18.3904 -18.3876 -18.3814 -18.3714
   -18.3451 -18.3068 -18.3048 -18.3003 -18.2911 -18.2868 -18.2855 -18.2816
   -18.2810 -18.2783 -18.2781 -18.2767 -18.2761 -18.2720 -18.2717 -18.2683
   -18.2675 -18.2651 -18.2650 -18.2603 -18.2568 -18.2512 -18.2503 -18.2454
   -18.2423 -18.2391 -18.2357 -18.2351 -18.2311 -18.2284 -18.2251 -18.2209
   -18.2208 -18.2165 -18.2026 -18.2022 -18.1954 -18.1918 -18.1820 -18.1771
    -9.6306  -9.3997  -9.2843  -9.1426  -9.1289  -9.1147  -9.0674  -9.0155
    -8.9615  -8.9365  -8.9231  -8.8760  -8.8609  -8.8331  -8.7846  -8.7652
    -8.7537  -8.7374  -8.7239  -8.6925  -8.6670  -8.6236  -8.5609  -8.4156
    -5.3689  -5.3480  -5.3447  -5.2393  -5.2141  -5.2121  -5.2057  -5.1966
    -5.1902  -5.1255  -5.1140  -5.1019  -5.0594  -5.0385  -5.0315  -5.0261
    -5.0201  -5.0132  -5.0083  -5.0061  -5.0021  -4.9888  -4.9859  -4.9763
    -4.2523  -4.0428  -3.9527  -3.7208  -3.6668  -3.4542  -3.4104  -3.1349
    -0.7963  -0.5964  -0.5465  -0.4573  -0.3526  -0.2566  -0.1528  -0.1239
    -0.0402  -0.0023   0.0814   0.1568   0.3171   0.3947   0.4682   0.5078
     0.5608   0.5753   0.5981   0.6280   0.6596   0.6775   0.7108   0.7519
     0.7857   0.8751   0.9362   0.9680   1.0171   1.0642   1.0766   1.1349
     1.1487   1.1964   1.2195   1.2434   1.2800   1.3156   1.3399   1.3841
     1.4075   1.4341   1.4670   1.4847   1.5313   1.5450   1.5618   1.5716
     1.6012   1.6300   1.6611   1.6977   1.7175   1.7268   1.7478   1.7743
     1.8152   1.8625   1.8683   1.8860   1.9189   1.9677   1.9832   1.9961
     2.0682   2.1179   2.1341   2.2463   2.2772   2.4033   2.4477   2.5575

          k = 0.1250-0.3750-0.3750 (132616 PWs)   bands (ev):

   -18.6014 -18.4519 -18.4266 -18.3990 -18.3904 -18.3876 -18.3814 -18.3714
   -18.3451 -18.3068 -18.3048 -18.3003 -18.2911 -18.2868 -18.2855 -18.2816
   -18.2810 -18.2783 -18.2781 -18.2767 -18.2761 -18.2720 -18.2717 -18.2683
   -18.2675 -18.2651 -18.2650 -18.2603 -18.2568 -18.2512 -18.2503 -18.2454
   -18.2423 -18.2391 -18.2357 -18.2351 -18.2311 -18.2284 -18.2251 -18.2209
   -18.2208 -18.2165 -18.2026 -18.2022 -18.1954 -18.1918 -18.1820 -18.1771
    -9.6305  -9.3994  -9.2855  -9.1412  -9.1326  -9.1119  -9.0676  -9.0075
    -8.9672  -8.9385  -8.9255  -8.8772  -8.8556  -8.8328  -8.7849  -8.7702
    -8.7542  -8.7373  -8.7200  -8.6905  -8.6686  -8.6234  -8.5614  -8.4156
    -5.3690  -5.3480  -5.3447  -5.2390  -5.2143  -5.2123  -5.2060  -5.1962
    -5.1902  -5.1253  -5.1141  -5.1019  -5.0595  -5.0386  -5.0315  -5.0261
    -5.0203  -5.0130  -5.0080  -5.0058  -5.0022  -4.9889  -4.9862  -4.9763
    -4.2277  -4.1146  -3.8831  -3.7547  -3.6255  -3.5508  -3.3128  -3.1663
    -0.7980  -0.5917  -0.5445  -0.4596  -0.3797  -0.2457  -0.1568  -0.1121
    -0.0702   0.0562   0.1018   0.1624   0.3213   0.3956   0.4513   0.4951
     0.5161   0.5689   0.5808   0.6406   0.6591   0.6800   0.7065   0.7389
     0.8008   0.8669   0.9402   0.9775   1.0185   1.0657   1.1072   1.1362
     1.1684   1.1847   1.2097   1.2437   1.2706   1.3221   1.3532   1.3696
     1.4139   1.4510   1.4672   1.4904   1.5057   1.5283   1.5564   1.5792
     1.5962   1.6143   1.6703   1.6814   1.7172   1.7357   1.7662   1.7930
     1.8161   1.8417   1.8702   1.8949   1.9306   1.9663   1.9911   2.0162
     2.0418   2.0974   2.1507   2.2276   2.2728   2.4091   2.4570   2.5614

          k = 0.3750 0.1250-0.3750 (132616 PWs)   bands (ev):

   -18.6014 -18.4519 -18.4266 -18.3990 -18.3904 -18.3876 -18.3814 -18.3714
   -18.3451 -18.3068 -18.3048 -18.3003 -18.2911 -18.2868 -18.2855 -18.2816
   -18.2810 -18.2783 -18.2781 -18.2767 -18.2761 -18.2720 -18.2717 -18.2683
   -18.2675 -18.2651 -18.2650 -18.2603 -18.2568 -18.2512 -18.2503 -18.2454
   -18.2423 -18.2391 -18.2357 -18.2351 -18.2311 -18.2284 -18.2251 -18.2209
   -18.2208 -18.2165 -18.2026 -18.2022 -18.1954 -18.1918 -18.1820 -18.1771
    -9.6301  -9.3982  -9.2810  -9.1741  -9.1340  -9.0970  -9.0528  -9.0142
    -8.9742  -8.9354  -8.8960  -8.8840  -8.8546  -8.8365  -8.7962  -8.7661
    -8.7507  -8.7350  -8.7188  -8.7042  -8.6748  -8.6167  -8.5583  -8.4162
    -5.3689  -5.3480  -5.3447  -5.2391  -5.2138  -5.2124  -5.2052  -5.1972
    -5.1907  -5.1252  -5.1140  -5.1014  -5.0603  -5.0385  -5.0310  -5.0257
    -5.0203  -5.0138  -5.0081  -5.0057  -5.0020  -4.9885  -4.9861  -4.9766
    -4.2378  -4.0348  -3.9699  -3.7571  -3.6661  -3.4237  -3.3990  -3.1551
    -0.7008  -0.5534  -0.4901  -0.4851  -0.3935  -0.2405  -0.2098  -0.1561
    -0.0500   0.0148   0.0888   0.1484   0.3188   0.3863   0.4361   0.4762
     0.4916   0.5548   0.5854   0.6181   0.6445   0.6730   0.7200   0.7639
     0.7992   0.9013   0.9403   0.9639   1.0246   1.0491   1.0642   1.1157
     1.1572   1.1779   1.2132   1.2299   1.2784   1.2995   1.3425   1.3670
     1.3854   1.4369   1.4678   1.5146   1.5236   1.5618   1.5812   1.5981
     1.6067   1.6319   1.6624   1.7097   1.7259   1.7669   1.7782   1.7872
     1.8282   1.8507   1.8738   1.8984   1.9424   1.9542   1.9918   2.0192
     2.0533   2.1114   2.1319   2.2004   2.3112   2.4195   2.4909   2.5647

          k =-0.3750-0.1250-0.3750 (132616 PWs)   bands (ev):

   -18.6014 -18.4519 -18.4266 -18.3990 -18.3904 -18.3876 -18.3814 -18.3714
   -18.3451 -18.3068 -18.3048 -18.3003 -18.2911 -18.2868 -18.2855 -18.2816
   -18.2810 -18.2783 -18.2781 -18.2767 -18.2761 -18.2720 -18.2717 -18.2683
   -18.2675 -18.2651 -18.2650 -18.2603 -18.2568 -18.2512 -18.2503 -18.2454
   -18.2423 -18.2391 -18.2357 -18.2351 -18.2311 -18.2284 -18.2251 -18.2209
   -18.2208 -18.2165 -18.2026 -18.2022 -18.1954 -18.1918 -18.1820 -18.1771
    -9.6301  -9.3982  -9.2789  -9.1772  -9.1379  -9.0969  -9.0461  -9.0129
    -8.9670  -8.9474  -8.8983  -8.8813  -8.8553  -8.8333  -8.7965  -8.7602
    -8.7547  -8.7400  -8.7224  -8.6984  -8.6739  -8.6172  -8.5586  -8.4161
    -5.3690  -5.3480  -5.3447  -5.2388  -5.2141  -5.2127  -5.2056  -5.1967
    -5.1905  -5.1253  -5.1139  -5.1015  -5.0605  -5.0385  -5.0311  -5.0257
    -5.0201  -5.0138  -5.0078  -5.0057  -5.0019  -4.9884  -4.9863  -4.9767
    -4.2370  -4.0289  -3.9676  -3.8015  -3.6187  -3.4384  -3.3956  -3.1556
    -0.7118  -0.5421  -0.5046  -0.4692  -0.3915  -0.2774  -0.1929  -0.1276
    -0.0545   0.0072   0.0925   0.1288   0.3392   0.4262   0.4408   0.4742
     0.5000   0.5288   0.5843   0.6072   0.6461   0.6603   0.7170   0.7517
     0.7990   0.9134   0.9319   0.9720   0.9965   1.0541   1.0810   1.1129
     1.1547   1.1632   1.1987   1.2468   1.2853   1.3082   1.3493   1.3656
     1.3878   1.4173   1.4942   1.5139   1.5349   1.5581   1.5747   1.5987
     1.6238   1.6406   1.6749   1.6942   1.7133   1.7378   1.7650   1.7909
     1.8182   1.8333   1.8776   1.9132   1.9366   1.9596   1.9963   2.0317
     2.0684   2.1120   2.1180   2.1977   2.3376   2.3981   2.4975   2.5667

          k = 0.3750-0.1250 0.3750 (132616 PWs)   bands (ev):

   -18.6014 -18.4519 -18.4266 -18.3990 -18.3904 -18.3876 -18.3814 -18.3714
   -18.3451 -18.3068 -18.3048 -18.3003 -18.2911 -18.2868 -18.2855 -18.2816
   -18.2810 -18.2783 -18.2781 -18.2767 -18.2761 -18.2720 -18.2717 -18.2683
   -18.2675 -18.2651 -18.2650 -18.2603 -18.2568 -18.2512 -18.2503 -18.2454
   -18.2423 -18.2391 -18.2357 -18.2351 -18.2311 -18.2284 -18.2251 -18.2209
   -18.2208 -18.2165 -18.2026 -18.2022 -18.1954 -18.1918 -18.1820 -18.1771
    -9.6300  -9.3988  -9.2801  -9.1764  -9.1234  -9.0991  -9.0641  -9.0141
    -8.9767  -8.9239  -8.8990  -8.8827  -8.8579  -8.8322  -8.8011  -8.7623
    -8.7451  -8.7400  -8.7284  -8.6985  -8.6732  -8.6170  -8.5589  -8.4161
    -5.3689  -5.3480  -5.3447  -5.2390  -5.2139  -5.2124  -5.2053  -5.1971
    -5.1906  -5.1252  -5.1138  -5.1016  -5.0603  -5.0385  -5.0310  -5.0257
    -5.0202  -5.0135  -5.0084  -5.0058  -5.0021  -4.9885  -4.9865  -4.9762
    -4.2411  -4.0158  -3.9768  -3.7950  -3.6184  -3.4422  -3.4093  -3.1442
    -0.7049  -0.5504  -0.5136  -0.4804  -0.3515  -0.2902  -0.1989  -0.1291
    -0.0650   0.0022   0.0988   0.1350   0.3498   0.4049   0.4354   0.4772
     0.5039   0.5366   0.5770   0.6081   0.6560   0.6710   0.7131   0.7531
     0.8130   0.8926   0.9365   0.9719   1.0133   1.0687   1.0858   1.1179
     1.1417   1.1643   1.1979   1.2240   1.2563   1.3116   1.3375   1.3845
     1.3998   1.4489   1.4563   1.5046   1.5337   1.5566   1.5811   1.5977
     1.6073   1.6399   1.6696   1.7066   1.7320   1.7554   1.7784   1.7960
     1.8137   1.8370   1.8769   1.8876   1.9275   1.9581   1.9976   2.0375
     2.0655   2.0958   2.1172   2.1971   2.3424   2.4017   2.4960   2.5758

          k =-0.3750 0.1250 0.3750 (132616 PWs)   bands (ev):

   -18.6014 -18.4519 -18.4266 -18.3990 -18.3904 -18.3876 -18.3814 -18.3714
   -18.3451 -18.3068 -18.3048 -18.3003 -18.2911 -18.2868 -18.2855 -18.2816
   -18.2810 -18.2783 -18.2781 -18.2767 -18.2761 -18.2720 -18.2717 -18.2683
   -18.2675 -18.2651 -18.2650 -18.2603 -18.2568 -18.2512 -18.2503 -18.2454
   -18.2423 -18.2391 -18.2357 -18.2351 -18.2311 -18.2284 -18.2251 -18.2209
   -18.2208 -18.2165 -18.2026 -18.2022 -18.1954 -18.1918 -18.1820 -18.1771
    -9.6300  -9.3987  -9.2804  -9.1705  -9.1418  -9.0952  -9.0504  -9.0120
    -8.9683  -8.9468  -8.8964  -8.8818  -8.8562  -8.8319  -8.7964  -8.7655
    -8.7535  -8.7358  -8.7235  -8.6968  -8.6750  -8.6169  -8.5592  -8.4160
    -5.3690  -5.3480  -5.3447  -5.2388  -5.2141  -5.2127  -5.2056  -5.1967
    -5.1906  -5.1251  -5.1139  -5.1016  -5.0603  -5.0385  -5.0310  -5.0258
    -5.0203  -5.0132  -5.0081  -5.0058  -5.0022  -4.9885  -4.9867  -4.9762
    -4.2313  -4.0462  -3.9652  -3.7749  -3.6511  -3.4193  -3.3936  -3.1618
    -0.7151  -0.5365  -0.5165  -0.4685  -0.3905  -0.2406  -0.2127  -0.1513
    -0.0543   0.0268   0.0965   0.1422   0.3141   0.3878   0.4503   0.4848
     0.4940   0.5659   0.5928   0.6035   0.6277   0.6804   0.7094   0.7424
     0.8030   0.9116   0.9298   0.9772   1.0078   1.0536   1.0794   1.1079
     1.1372   1.1711   1.2218   1.2362   1.2747   1.3036   1.3385   1.3821
     1.4001   1.4154   1.4746   1.5106   1.5353   1.5489   1.5743   1.5923
     1.6218   1.6396   1.6827   1.6957   1.7212   1.7417   1.7724   1.7869
     1.8274   1.8512   1.8675   1.8969   1.9406   1.9599   2.0038   2.0241
     2.0539   2.1111   2.1311   2.1915   2.3163   2.4239   2.5071   2.5638

          k = 0.3750-0.3750 0.1250 (132616 PWs)   bands (ev):

   -18.6014 -18.4519 -18.4266 -18.3990 -18.3904 -18.3876 -18.3814 -18.3714
   -18.3451 -18.3068 -18.3048 -18.3003 -18.2911 -18.2868 -18.2855 -18.2816
   -18.2810 -18.2783 -18.2781 -18.2767 -18.2761 -18.2720 -18.2717 -18.2683
   -18.2675 -18.2651 -18.2650 -18.2603 -18.2568 -18.2512 -18.2503 -18.2454
   -18.2423 -18.2391 -18.2357 -18.2351 -18.2311 -18.2284 -18.2251 -18.2209
   -18.2208 -18.2165 -18.2026 -18.2022 -18.1954 -18.1918 -18.1820 -18.1771
    -9.6293  -9.4033  -9.2703  -9.1898  -9.1400  -9.0879  -9.0416  -9.0047
    -8.9641  -8.9313  -8.9204  -8.8844  -8.8727  -8.8204  -8.8014  -8.7766
    -8.7540  -8.7263  -8.7162  -8.7025  -8.6650  -8.6222  -8.5588  -8.4161
    -5.3689  -5.3480  -5.3447  -5.2390  -5.2140  -5.2118  -5.2054  -5.1972
    -5.1906  -5.1253  -5.1139  -5.1016  -5.0588  -5.0383  -5.0317  -5.0255
    -5.0209  -5.0139  -5.0084  -5.0057  -5.0014  -4.9891  -4.9860  -4.9759
    -4.2326  -4.0440  -3.9446  -3.7688  -3.6529  -3.4441  -3.4098  -3.1638
    -0.6292  -0.5911  -0.5434  -0.4402  -0.3699  -0.2667  -0.1875  -0.1010
    -0.0685  -0.0145   0.0566   0.1453   0.3173   0.3746   0.4611   0.4943
     0.5377   0.5766   0.5985   0.6279   0.6422   0.6770   0.7170   0.7591
     0.8271   0.8445   0.9253   0.9363   0.9857   1.0206   1.0463   1.0818
     1.1730   1.2333   1.2404   1.2716   1.2875   1.3186   1.3459   1.3800
     1.4104   1.4193   1.4448   1.4752   1.5066   1.5483   1.5747   1.6049
     1.6245   1.6362   1.6592   1.6809   1.7153   1.7506   1.7814   1.8189
     1.8348   1.8553   1.8809   1.8973   1.9480   1.9647   1.9917   2.0217
     2.0599   2.0836   2.1616   2.1889   2.2795   2.3159   2.4805   2.5497

          k =-0.3750-0.3750-0.1250 (132616 PWs)   bands (ev):

   -18.6014 -18.4519 -18.4266 -18.3990 -18.3904 -18.3876 -18.3814 -18.3714
   -18.3451 -18.3068 -18.3048 -18.3003 -18.2911 -18.2868 -18.2855 -18.2816
   -18.2810 -18.2783 -18.2781 -18.2767 -18.2761 -18.2720 -18.2717 -18.2683
   -18.2675 -18.2651 -18.2650 -18.2603 -18.2568 -18.2512 -18.2503 -18.2454
   -18.2423 -18.2391 -18.2357 -18.2351 -18.2311 -18.2284 -18.2251 -18.2209
   -18.2208 -18.2165 -18.2026 -18.2022 -18.1954 -18.1918 -18.1820 -18.1771
    -9.6294  -9.4024  -9.2709  -9.1906  -9.1418  -9.0954  -9.0256  -8.9980
    -8.9606  -8.9519  -8.9213  -8.8828  -8.8703  -8.8192  -8.8018  -8.7756
    -8.7564  -8.7302  -8.7121  -8.6988  -8.6672  -8.6225  -8.5585  -8.4161
    -5.3690  -5.3480  -5.3447  -5.2388  -5.2141  -5.2122  -5.2057  -5.1968
    -5.1905  -5.1253  -5.1139  -5.1016  -5.0590  -5.0384  -5.0318  -5.0255
    -5.0209  -5.0142  -5.0078  -5.0056  -5.0013  -4.9890  -4.9858  -4.9763
    -4.2299  -4.0422  -3.9493  -3.7839  -3.6406  -3.4555  -3.3806  -3.1792
    -0.6432  -0.5902  -0.5332  -0.4111  -0.3890  -0.2536  -0.2100  -0.1135
    -0.0675   0.0280   0.0627   0.1121   0.3235   0.3721   0.4734   0.4921
     0.5218   0.5709   0.5985   0.6195   0.6547   0.6816   0.7143   0.7384
     0.8039   0.8607   0.9384   0.9523   0.9896   1.0242   1.0495   1.0852
     1.1684   1.1977   1.2334   1.2690   1.2841   1.3286   1.3558   1.3703
     1.4183   1.4302   1.4595   1.4861   1.5175   1.5478   1.5738   1.5965
     1.6241   1.6423   1.6586   1.6831   1.7129   1.7573   1.7655   1.8015
     1.8283   1.8366   1.8817   1.9257   1.9292   1.9722   1.9915   2.0122
     2.0630   2.1014   2.1430   2.2208   2.2719   2.3343   2.4575   2.5519

          k = 0.3750 0.3750-0.1250 (132616 PWs)   bands (ev):

   -18.6014 -18.4519 -18.4266 -18.3990 -18.3904 -18.3876 -18.3814 -18.3714
   -18.3451 -18.3068 -18.3048 -18.3003 -18.2911 -18.2868 -18.2855 -18.2816
   -18.2810 -18.2783 -18.2781 -18.2767 -18.2761 -18.2720 -18.2717 -18.2683
   -18.2675 -18.2651 -18.2650 -18.2603 -18.2568 -18.2512 -18.2503 -18.2454
   -18.2423 -18.2391 -18.2357 -18.2351 -18.2311 -18.2284 -18.2251 -18.2209
   -18.2208 -18.2165 -18.2026 -18.2022 -18.1954 -18.1918 -18.1820 -18.1771
    -9.6294  -9.4021  -9.2740  -9.1897  -9.1358  -9.0891  -9.0389  -9.0042
    -8.9659  -8.9352  -8.9198  -8.8927  -8.8588  -8.8233  -8.8050  -8.7737
    -8.7573  -8.7278  -8.7130  -8.6974  -8.6689  -8.6226  -8.5581  -8.4161
    -5.3689  -5.3480  -5.3447  -5.2390  -5.2139  -5.2119  -5.2054  -5.1973
    -5.1907  -5.1253  -5.1140  -5.1015  -5.0589  -5.0384  -5.0317  -5.0255
    -5.0211  -5.0143  -5.0080  -5.0055  -5.0013  -4.9891  -4.9857  -4.9762
    -4.2334  -4.0304  -3.9581  -3.7856  -3.6324  -3.4494  -3.3986  -3.1733
    -0.6181  -0.5918  -0.5513  -0.4186  -0.3841  -0.2622  -0.2008  -0.1103
    -0.0686   0.0208   0.0465   0.1266   0.3169   0.3821   0.4619   0.4746
     0.5338   0.5680   0.5914   0.6052   0.6612   0.7020   0.7217   0.7740
     0.7864   0.8556   0.9270   0.9660   0.9727   1.0117   1.0666   1.0884
     1.1740   1.2222   1.2504   1.2858   1.2971   1.3153   1.3405   1.3590
     1.4007   1.4143   1.4339   1.4671   1.5176   1.5608   1.5839   1.5960
     1.6049   1.6361   1.6709   1.6843   1.7338   1.7546   1.7675   1.8065
     1.8406   1.8601   1.8844   1.9178   1.9333   1.9661   1.9932   2.0079
     2.0640   2.1019   2.1466   2.1863   2.2812   2.3321   2.4646   2.5439

          k =-0.3750 0.3750 0.1250 (132616 PWs)   bands (ev):

   -18.6014 -18.4519 -18.4266 -18.3990 -18.3904 -18.3876 -18.3814 -18.3714
   -18.3451 -18.3068 -18.3048 -18.3003 -18.2911 -18.2868 -18.2855 -18.2816
   -18.2810 -18.2783 -18.2781 -18.2767 -18.2761 -18.2720 -18.2717 -18.2683
   -18.2675 -18.2651 -18.2650 -18.2603 -18.2568 -18.2512 -18.2503 -18.2454
   -18.2423 -18.2391 -18.2357 -18.2351 -18.2311 -18.2284 -18.2251 -18.2209
   -18.2208 -18.2165 -18.2026 -18.2022 -18.1954 -18.1918 -18.1820 -18.1771
    -9.6293  -9.4030  -9.2712  -9.1905  -9.1422  -9.0884  -9.0327  -8.9948
    -8.9642  -8.9545  -8.9183  -8.8881  -8.8605  -8.8210  -8.8036  -8.7755
    -8.7555  -8.7298  -8.7155  -8.6957  -8.6668  -8.6227  -8.5591  -8.4160
    -5.3690  -5.3480  -5.3447  -5.2388  -5.2142  -5.2121  -5.2057  -5.1968
    -5.1906  -5.1251  -5.1140  -5.1016  -5.0588  -5.0384  -5.0317  -5.0255
    -5.0211  -5.0137  -5.0081  -5.0056  -5.0015  -4.9892  -4.9862  -4.9759
    -4.2247  -4.0539  -3.9406  -3.7992  -3.6239  -3.4452  -3.3952  -3.1783
    -0.6400  -0.5788  -0.5551  -0.4284  -0.3829  -0.2516  -0.1769  -0.1102
    -0.0773   0.0027   0.0614   0.1416   0.3131   0.3809   0.4560   0.5033
     0.5334   0.5696   0.5841   0.6058   0.6511   0.6780   0.7259   0.7659
     0.8182   0.8444   0.9081   0.9478   0.9846   1.0146   1.0777   1.0837
     1.1731   1.2023   1.2540   1.2758   1.3026   1.3126   1.3347   1.3616
     1.4091   1.4209   1.4580   1.4898   1.5224   1.5353   1.5614   1.5917
     1.6267   1.6448   1.6652   1.6833   1.7238   1.7408   1.7847   1.8103
     1.8353   1.8594   1.8735   1.9044   1.9519   1.9704   1.9923   2.0131
     2.0677   2.0906   2.1557   2.2035   2.2353   2.3300   2.4870   2.5567

          k =-0.3750-0.3750 0.3750 (132612 PWs)   bands (ev):

   -18.6014 -18.4519 -18.4266 -18.3990 -18.3904 -18.3876 -18.3814 -18.3714
   -18.3451 -18.3068 -18.3048 -18.3003 -18.2911 -18.2868 -18.2855 -18.2816
   -18.2810 -18.2783 -18.2781 -18.2767 -18.2761 -18.2720 -18.2717 -18.2683
   -18.2675 -18.2651 -18.2650 -18.2603 -18.2568 -18.2512 -18.2503 -18.2454
   -18.2423 -18.2391 -18.2357 -18.2351 -18.2311 -18.2284 -18.2251 -18.2209
   -18.2208 -18.2165 -18.2026 -18.2022 -18.1954 -18.1918 -18.1820 -18.1771
    -9.6285  -9.3954  -9.2759  -9.1727  -9.1290  -9.1162  -9.0692  -9.0210
    -8.9637  -8.9389  -8.9059  -8.8835  -8.8480  -8.8169  -8.7897  -8.7640
    -8.7509  -8.7316  -8.7166  -8.7026  -8.6743  -8.6264  -8.5605  -8.4174
    -5.3690  -5.3480  -5.3447  -5.2393  -5.2141  -5.2120  -5.2056  -5.1969
    -5.1906  -5.1252  -5.1139  -5.1016  -5.0589  -5.0387  -5.0314  -5.0262
    -5.0204  -5.0141  -5.0076  -5.0057  -5.0016  -4.9891  -4.9855  -4.9762
    -4.1325  -3.9388  -3.9082  -3.7956  -3.6261  -3.5835  -3.5493  -3.3257
    -0.4677  -0.3827  -0.3397  -0.2908  -0.2341  -0.1744  -0.1041  -0.0685
    -0.0003   0.0379   0.0859   0.2174   0.2883   0.3416   0.3757   0.4169
     0.4662   0.5041   0.5538   0.5908   0.6011   0.6478   0.6841   0.7024
     0.8438   0.8698   0.9042   0.9343   0.9629   1.0001   1.0436   1.1082
     1.1322   1.1445   1.1561   1.1949   1.2230   1.2407   1.2752   1.2969
     1.3656   1.3988   1.4409   1.4816   1.5257   1.5536   1.5933   1.6256
     1.6341   1.6469   1.6573   1.7029   1.7583   1.7839   1.7868   1.8177
     1.8569   1.8694   1.8863   1.9004   1.9157   1.9400   1.9574   1.9880
     2.0025   2.0545   2.0921   2.1100   2.1427   2.1813   2.2579   2.3504

          k =-0.3750 0.3750-0.3750 (132612 PWs)   bands (ev):

   -18.6014 -18.4519 -18.4266 -18.3990 -18.3904 -18.3876 -18.3814 -18.3714
   -18.3451 -18.3068 -18.3048 -18.3003 -18.2911 -18.2868 -18.2855 -18.2816
   -18.2810 -18.2783 -18.2781 -18.2767 -18.2761 -18.2720 -18.2717 -18.2683
   -18.2675 -18.2651 -18.2650 -18.2603 -18.2568 -18.2512 -18.2503 -18.2454
   -18.2423 -18.2391 -18.2357 -18.2351 -18.2311 -18.2284 -18.2251 -18.2209
   -18.2208 -18.2165 -18.2026 -18.2022 -18.1954 -18.1918 -18.1820 -18.1771
    -9.6284  -9.3963  -9.2742  -9.1695  -9.1348  -9.1101  -9.0778  -9.0215
    -8.9628  -8.9334  -8.9018  -8.8863  -8.8528  -8.8151  -8.7905  -8.7606
    -8.7463  -8.7354  -8.7243  -8.7005  -8.6720  -8.6261  -8.5612  -8.4173
    -5.3689  -5.3480  -5.3447  -5.2392  -5.2141  -5.2120  -5.2056  -5.1969
    -5.1905  -5.1252  -5.1137  -5.1017  -5.0588  -5.0386  -5.0314  -5.0262
    -5.0202  -5.0138  -5.0079  -5.0059  -5.0018  -4.9892  -4.9858  -4.9758
    -4.1347  -3.9474  -3.8919  -3.7912  -3.6210  -3.5865  -3.5739  -3.3125
    -0.4852  -0.3672  -0.3379  -0.2909  -0.2237  -0.1937  -0.1243  -0.0381
    -0.0197   0.0309   0.1080   0.1981   0.3134   0.3259   0.3932   0.4308
     0.4973   0.5172   0.5424   0.5758   0.6086   0.6328   0.6655   0.7050
     0.8243   0.8796   0.9069   0.9441   0.9756   1.0108   1.0498   1.0725
     1.0944   1.1134   1.1756   1.1982   1.2232   1.2404   1.2909   1.3299
     1.3652   1.3944   1.4423   1.4834   1.5207   1.5502   1.5873   1.6143
     1.6315   1.6496   1.6890   1.7086   1.7440   1.7674   1.7930   1.8191
     1.8446   1.8621   1.8707   1.8977   1.9218   1.9506   1.9715   1.9881
     2.0174   2.0310   2.0743   2.1176   2.1445   2.1975   2.2694   2.3483

          k = 0.3750-0.3750-0.3750 (132612 PWs)   bands (ev):

   -18.6014 -18.4519 -18.4266 -18.3990 -18.3904 -18.3876 -18.3814 -18.3714
   -18.3451 -18.3068 -18.3048 -18.3003 -18.2911 -18.2868 -18.2855 -18.2816
   -18.2810 -18.2783 -18.2781 -18.2767 -18.2761 -18.2720 -18.2717 -18.2683
   -18.2675 -18.2651 -18.2650 -18.2603 -18.2568 -18.2512 -18.2503 -18.2454
   -18.2423 -18.2391 -18.2357 -18.2351 -18.2311 -18.2284 -18.2251 -18.2209
   -18.2208 -18.2165 -18.2026 -18.2022 -18.1954 -18.1918 -18.1820 -18.1771
    -9.6284  -9.3959  -9.2753  -9.1674  -9.1445  -9.1063  -9.0717  -9.0111
    -8.9695  -8.9447  -8.9003  -8.8860  -8.8478  -8.8132  -8.7915  -8.7659
    -8.7443  -8.7394  -8.7218  -8.6945  -8.6739  -8.6269  -8.5615  -8.4172
    -5.3690  -5.3480  -5.3447  -5.2390  -5.2143  -5.2123  -5.2059  -5.1965
    -5.1906  -5.1251  -5.1139  -5.1017  -5.0589  -5.0387  -5.0314  -5.0262
    -5.0204  -5.0135  -5.0075  -5.0057  -5.0019  -4.9893  -4.9860  -4.9758
    -4.1099  -4.0038  -3.8671  -3.7839  -3.6780  -3.5794  -3.4898  -3.3474
    -0.4904  -0.3959  -0.3331  -0.2599  -0.2406  -0.1738  -0.1107  -0.0644
    -0.0416   0.0952   0.1451   0.1781   0.2863   0.3343   0.3713   0.4216
     0.4763   0.5220   0.5352   0.5845   0.5948   0.6340   0.6809   0.6938
     0.8438   0.8736   0.9069   0.9327   0.9582   1.0123   1.0559   1.0863
     1.1185   1.1476   1.1728   1.1840   1.2065   1.2224   1.2760   1.3347
     1.3770   1.4106   1.4565   1.4861   1.4981   1.5469   1.5633   1.6327
     1.6369   1.6555   1.6832   1.7068   1.7279   1.7700   1.7877   1.8177
     1.8456   1.8600   1.8856   1.9113   1.9247   1.9466   1.9778   1.9897
     2.0071   2.0592   2.0741   2.1012   2.1230   2.2028   2.2635   2.3604

     highest occupied level (ev):     3.0830

!    total energy              =   -2256.28367305 Ry
     estimated scf accuracy    <          7.4E-11 Ry

     The total energy is the sum of the following terms:
     one-electron contribution =    -981.23356161 Ry
     hartree contribution      =     618.56936810 Ry
     xc contribution           =    -647.43265699 Ry
     ewald contribution        =   -1246.18682255 Ry

     convergence has been achieved in  15 iterations

     Forces acting on atoms (cartesian axes, Ry/au):

     atom    1 type  1   force =     0.00119248    0.00054240    0.00365533
     atom    2 type  2   force =     0.04346976   -0.00797382    0.00214588
     atom    3 type  3   force =     0.01438029   -0.00351074   -0.00240553
     atom    4 type  3   force =    -0.00274521    0.00317694    0.00023511
     atom    5 type  3   force =    -0.00205382    0.00547046    0.00443992
     atom    6 type  1   force =    -0.00267631    0.00044258   -0.00253988
     atom    7 type  2   force =     0.00219846    0.01374272   -0.00576694
     atom    8 type  3   force =    -0.00167531   -0.00200928   -0.00372074
     atom    9 type  3   force =    -0.00354110   -0.00180747   -0.00132165
     atom   10 type  3   force =    -0.00630771    0.00032263    0.00236479
     atom   11 type  1   force =    -0.00117194   -0.00362593    0.00068003
     atom   12 type  2   force =    -0.00402956    0.00293853   -0.01089682
     atom   13 type  3   force =    -0.00156150    0.00418281   -0.00928585
     atom   14 type  3   force =    -0.01022813    0.00235188   -0.00492664
     atom   15 type  3   force =     0.01002073   -0.00149268   -0.00750125
     atom   16 type  1   force =     0.02112025    0.02388940    0.00045275
     atom   17 type  2   force =     0.01867228   -0.01370683    0.00388757
     atom   18 type  3   force =     0.00614419    0.00354530    0.00256938
     atom   19 type  3   force =    -0.02762588   -0.02726046    0.00235635
     atom   20 type  3   force =     0.00396626   -0.00229205   -0.00328558
     atom   21 type  1   force =    -0.00018318    0.00231112    0.00452164
     atom   22 type  2   force =    -0.01198553   -0.01173385   -0.00056488
     atom   23 type  3   force =    -0.02982769    0.00242938    0.00131503
     atom   24 type  3   force =    -0.00081693    0.00559973    0.00410926
     atom   25 type  3   force =    -0.00032041   -0.03221803   -0.00224279
     atom   26 type  1   force =     0.00138350   -0.00135573   -0.00135369
     atom   27 type  2   force =     0.00532500    0.01014407   -0.00286050
     atom   28 type  3   force =     0.00720048    0.00156831    0.00268874
     atom   29 type  3   force =     0.00190353   -0.00253859    0.00298194
     atom   30 type  3   force =     0.00050697   -0.00509754    0.00368505
     atom   31 type  1   force =    -0.00995833   -0.00109926    0.01108459
     atom   32 type  2   force =     0.00015876    0.02085858    0.00458238
     atom   33 type  3   force =    -0.00932240    0.00067668   -0.00140349
     atom   34 type  3   force =     0.00641612   -0.00028421    0.00846005
     atom   35 type  3   force =    -0.00258675    0.01215665   -0.00370223
     atom   36 type  1   force =     0.00459016    0.00208234   -0.00200086
     atom   37 type  2   force =    -0.01577521   -0.00490552   -0.00389406
     atom   38 type  3   force =     0.00259843   -0.00693947    0.00483260
     atom   39 type  3   force =    -0.00073007   -0.00680368   -0.00609508
     atom   40 type  3   force =    -0.00612466    0.01822261    0.00472005

     Total force =     0.103945     Total SCF correction =     0.000041


     Computing stress (Cartesian axis) and pressure

          total   stress  (Ry/bohr**3)                   (kbar)     P=       -8.36
  -0.00004841   0.00000867  -0.00000034           -7.12        1.27       -0.05
   0.00000867  -0.00005291   0.00000336            1.27       -7.78        0.49
  -0.00000034   0.00000336  -0.00006909           -0.05        0.49      -10.16

 
     init_run     :     19.89s CPU     16.68s WALL (       1 calls)
     electrons    :    201.01s CPU    210.82s WALL (       1 calls)
     forces       :      8.63s CPU      4.02s WALL (       1 calls)
     stress       :     31.46s CPU     31.09s WALL (       1 calls)

     Called by init_run:
     wfcinit      :     11.93s CPU     13.61s WALL (       1 calls)
                                       13.61s GPU  (       1 calls)
     potinit      :      4.54s CPU      1.39s WALL (       1 calls)
     hinit0       :      2.84s CPU      0.99s WALL (       1 calls)

     Called by electrons:
     c_bands      :    119.93s CPU    168.50s WALL (      16 calls)
     sum_band     :     22.10s CPU     21.02s WALL (      16 calls)
                                       21.02s GPU  (      16 calls)
     v_of_rho     :     54.69s CPU     16.54s WALL (      16 calls)
     mix_rho      :      6.47s CPU      5.00s WALL (      16 calls)

     Called by c_bands:
     init_us_2    :      2.35s CPU      3.08s WALL (     280 calls)
                                        3.07s GPU  (     280 calls)
     cegterg      :     81.11s CPU    127.23s WALL (     128 calls)

     Called by *egterg:
     cdiaghg      :     13.72s CPU     25.29s WALL (     641 calls)
                                       25.26s GPU  (     641 calls)
     h_psi        :     54.99s CPU     73.56s WALL (     657 calls)
                                       73.11s GPU  (     657 calls)
     g_psi        :      0.00s CPU      0.36s WALL (     521 calls)
                                        0.35s GPU  (     521 calls)

     Called by h_psi:
     h_psi:calbec :      0.31s CPU      9.89s WALL (     657 calls)
                                        9.88s GPU  (     657 calls)
     vloc_psi     :     39.98s CPU     53.73s WALL (     657 calls)
                                       52.81s GPU  (     657 calls)
     add_vuspsi   :      0.34s CPU      9.86s WALL (     657 calls)
                                        9.85s GPU  (     657 calls)

     General routines
     calbec       :      0.31s CPU      0.39s WALL (     697 calls)
     fft          :     25.48s CPU      6.51s WALL (     185 calls)
                                        0.00s GPU  (       6 calls)
     ffts         :      2.63s CPU      0.68s WALL (      16 calls)
     fftw         :      0.63s CPU     62.27s WALL (   10392 calls)
                                       46.60s GPU  (   10392 calls)
 
     Parallel routines
 
     PWSCF        :   4m21.71s CPU   4m23.38s WALL

 
   This run was terminated on:  21:29:42  22Apr2021            

=------------------------------------------------------------------------------=
   JOB DONE.
=------------------------------------------------------------------------------=
