
     Program PWSCF v.6.7MaX starts on 22Apr2021 at 19:20: 8 

     This program is part of the open-source Quantum ESPRESSO suite
     for quantum simulation of materials; please cite
         "P. Giannozzi et al., J. Phys.:Condens. Matter 21 395502 (2009);
         "P. Giannozzi et al., J. Phys.:Condens. Matter 29 465901 (2017);
         "P. Giannozzi et al., J. Chem. Phys. 152 154105 (2020);
          URL http://www.quantum-espresso.org", 
     in publications or presentations arising from this work. More details at
     http://www.quantum-espresso.org/quote

     Parallel version (MPI & OpenMP), running on      16 processor cores
     Number of MPI processes:                 4
     Threads/MPI process:                     4

     MPI processes distributed on     1 nodes
     K-points division:     npool     =       4
     Reading input from ESP_43.pwi
Warning: card &CELL ignored
Warning: card / ignored

     Current dimensions of program PWSCF are:
     Max number of different atomic species (ntypx) = 10
     Max number of k-points (npk) =  40000
     Max angular momentum in pseudopotentials (lmaxx) =  3
     Message from routine read_pp_mesh:
     mesh size missing, using the one in header
     Message from routine read_pp_mesh:
     mesh size missing, using the one in header
     Message from routine read_pp_mesh:
     mesh size missing, using the one in header

     Subspace diagonalization in iterative solution of the eigenvalue problem:
     a serial algorithm will be used

 
     G-vector sticks info
     --------------------
     sticks:   dense  smooth     PW     G-vecs:    dense   smooth      PW
     Sum       12589   12589   3289              1061107  1061107  140905
 
     Using Slab Decomposition
 


     bravais-lattice index     =            0
     lattice parameter (alat)  =      23.7585  a.u.
     unit-cell volume          =   13410.8736 (a.u.)^3
     number of atoms/cell      =           40
     number of atomic types    =            3
     number of electrons       =       352.00
     number of Kohn-Sham states=          176
     kinetic-energy cutoff     =      70.0000  Ry
     charge density cutoff     =     280.0000  Ry
     scf convergence threshold =      1.0E-10
     mixing beta               =       0.7000
     number of iterations used =            8  plain     mixing
     Exchange-correlation= PBESOL
                           (   1   4  10   8   0   0   0)

     GPU acceleration is ACTIVE.


     celldm(1)=  23.758500  celldm(2)=   0.000000  celldm(3)=   0.000000
     celldm(4)=   0.000000  celldm(5)=   0.000000  celldm(6)=   0.000000

     crystal axes: (cart. coord. in units of alat)
               a(1) = (   1.000000   0.000000   0.000000 )  
               a(2) = (   0.000000   1.000000   0.000000 )  
               a(3) = (   0.000000   0.000000   1.000000 )  

     reciprocal axes: (cart. coord. in units 2 pi/alat)
               b(1) = (  1.000000  0.000000  0.000000 )  
               b(2) = (  0.000000  1.000000  0.000000 )  
               b(3) = (  0.000000  0.000000  1.000000 )  


     PseudoPot. # 1 for Cs read from file:
     /m100/home/userexternal/lmonacel/espresso/pseudo/Cs-nc-pbesol.upf
     MD5 check sum: 9d2f2206a14dc5b3b3f3fbfae186bed4
     Pseudo is Norm-conserving + core correction, Zval =  9.0
     Generated using ONCVPSP code by D. R. Hamann
     Using radial grid of 2384 points,  8 beta functions with: 
                l(1) =   0
                l(2) =   0
                l(3) =   1
                l(4) =   1
                l(5) =   2
                l(6) =   2
                l(7) =   3
                l(8) =   3

     PseudoPot. # 2 for Sn read from file:
     /m100/home/userexternal/lmonacel/espresso/pseudo/Sn-nc-pbesol.upf
     MD5 check sum: c2995d571af40102bfea7461443d92cf
     Pseudo is Norm-conserving + core correction, Zval = 14.0
     Generated using ONCVPSP code by D. R. Hamann
     Using radial grid of 1628 points,  6 beta functions with: 
                l(1) =   0
                l(2) =   0
                l(3) =   1
                l(4) =   1
                l(5) =   2
                l(6) =   2

     PseudoPot. # 3 for I  read from file:
     /m100/home/userexternal/lmonacel/espresso/pseudo/I-nc-pbesol.upf
     MD5 check sum: 80ed5ceb2eb9c553cfb6760a299d9c5b
     Pseudo is Norm-conserving + core correction, Zval =  7.0
     Generated using ONCVPSP code by D. R. Hamann
     Using radial grid of 1182 points,  6 beta functions with: 
                l(1) =   0
                l(2) =   0
                l(3) =   1
                l(4) =   1
                l(5) =   2
                l(6) =   2

     atomic species   valence    mass     pseudopotential
        Cs             9.00   132.90545     Cs( 1.00)
        Sn            14.00   118.71000     Sn( 1.00)
        I              7.00   126.90447     I ( 1.00)

     No symmetry found



   Cartesian axes

     site n.     atom                  positions (alat units)
         1           Cs  tau(   1) = (   0.2369461   0.2613645   0.2610227  )
         2           Sn  tau(   2) = (   0.0097643  -0.0077748  -0.0015995  )
         3           I   tau(   3) = (   0.2495526   0.0028275   0.0141649  )
         4           I   tau(   4) = (  -0.0012172   0.0096172   0.2408226  )
         5           I   tau(   5) = (  -0.0537182   0.2683093   0.0004403  )
         6           Cs  tau(   6) = (   0.2535664   0.2167519   0.7355805  )
         7           Sn  tau(   7) = (  -0.0038897   0.0038580   0.5061881  )
         8           I   tau(   8) = (   0.2484329  -0.0249551   0.5163974  )
         9           I   tau(   9) = (  -0.0060050  -0.0109563   0.7487253  )
        10           I   tau(  10) = (   0.0323264   0.2429626   0.4863469  )
        11           Cs  tau(  11) = (   0.2289280   0.7776457   0.2578839  )
        12           Sn  tau(  12) = (   0.0113655   0.4981336   0.0087312  )
        13           I   tau(  13) = (   0.2600309   0.4993364   0.0100649  )
        14           I   tau(  14) = (  -0.0519977   0.5027335   0.2590514  )
        15           I   tau(  15) = (   0.0185205   0.7627589   0.0256384  )
        16           Cs  tau(  16) = (   0.2541533   0.7543723   0.7102273  )
        17           Sn  tau(  17) = (   0.0012619   0.4934630   0.5055704  )
        18           I   tau(  18) = (   0.2525404   0.4883499   0.4819620  )
        19           I   tau(  19) = (   0.0291866   0.4840743   0.7453575  )
        20           I   tau(  20) = (   0.0014126   0.7509231   0.4975799  )
        21           Cs  tau(  21) = (   0.7548368   0.2277847   0.2649600  )
        22           Sn  tau(  22) = (   0.4968796  -0.0003512  -0.0022563  )
        23           I   tau(  23) = (   0.7462707  -0.0301007  -0.0244990  )
        24           I   tau(  24) = (   0.5174530  -0.0099110   0.2757027  )
        25           I   tau(  25) = (   0.5116325   0.2496298   0.0145018  )
        26           Cs  tau(  26) = (   0.7205238   0.2762198   0.7436165  )
        27           Sn  tau(  27) = (   0.5063323   0.0249567   0.5090263  )
        28           I   tau(  28) = (   0.7641966   0.0111600   0.5077602  )
        29           I   tau(  29) = (   0.4791090   0.0191512   0.7656694  )
        30           I   tau(  30) = (   0.4715304   0.2426103   0.5125328  )
        31           Cs  tau(  31) = (   0.7596006   0.7379250   0.2639920  )
        32           Sn  tau(  32) = (   0.4942648   0.4984867  -0.0206357  )
        33           I   tau(  33) = (   0.7629378   0.5222379  -0.0508126  )
        34           I   tau(  34) = (   0.5303215   0.4997017   0.2484216  )
        35           I   tau(  35) = (   0.4761288   0.7608767  -0.0123523  )
        36           Cs  tau(  36) = (   0.7374712   0.7410441   0.7309699  )
        37           Sn  tau(  37) = (   0.5046171   0.5115870   0.4909269  )
        38           I   tau(  38) = (   0.7533460   0.4744600   0.5317566  )
        39           I   tau(  39) = (   0.4956183   0.5174322   0.7491309  )
        40           I   tau(  40) = (   0.5496507   0.7530734   0.4926720  )

     number of k points=    32
                       cart. coord. in units 2pi/alat
        k(    1) = (   0.1250000   0.1250000   0.1250000), wk =   0.0625000
        k(    2) = (   0.1250000   0.1250000   0.3750000), wk =   0.0625000
        k(    3) = (   0.1250000   0.3750000   0.3750000), wk =   0.0625000
        k(    4) = (   0.3750000   0.3750000   0.3750000), wk =   0.0625000
        k(    5) = (  -0.1250000  -0.1250000   0.1250000), wk =   0.0625000
        k(    6) = (  -0.1250000   0.1250000  -0.1250000), wk =   0.0625000
        k(    7) = (   0.1250000  -0.1250000  -0.1250000), wk =   0.0625000
        k(    8) = (  -0.1250000  -0.1250000   0.3750000), wk =   0.0625000
        k(    9) = (  -0.1250000   0.1250000  -0.3750000), wk =   0.0625000
        k(   10) = (   0.1250000  -0.1250000  -0.3750000), wk =   0.0625000
        k(   11) = (   0.3750000  -0.1250000   0.1250000), wk =   0.0625000
        k(   12) = (  -0.3750000  -0.1250000  -0.1250000), wk =   0.0625000
        k(   13) = (   0.3750000   0.1250000  -0.1250000), wk =   0.0625000
        k(   14) = (  -0.3750000   0.1250000   0.1250000), wk =   0.0625000
        k(   15) = (  -0.1250000   0.3750000   0.1250000), wk =   0.0625000
        k(   16) = (  -0.1250000  -0.3750000  -0.1250000), wk =   0.0625000
        k(   17) = (   0.1250000   0.3750000  -0.1250000), wk =   0.0625000
        k(   18) = (   0.1250000  -0.3750000   0.1250000), wk =   0.0625000
        k(   19) = (  -0.1250000  -0.3750000   0.3750000), wk =   0.0625000
        k(   20) = (  -0.1250000   0.3750000  -0.3750000), wk =   0.0625000
        k(   21) = (   0.1250000  -0.3750000  -0.3750000), wk =   0.0625000
        k(   22) = (   0.3750000   0.1250000  -0.3750000), wk =   0.0625000
        k(   23) = (  -0.3750000  -0.1250000  -0.3750000), wk =   0.0625000
        k(   24) = (   0.3750000  -0.1250000   0.3750000), wk =   0.0625000
        k(   25) = (  -0.3750000   0.1250000   0.3750000), wk =   0.0625000
        k(   26) = (   0.3750000  -0.3750000   0.1250000), wk =   0.0625000
        k(   27) = (  -0.3750000  -0.3750000  -0.1250000), wk =   0.0625000
        k(   28) = (   0.3750000   0.3750000  -0.1250000), wk =   0.0625000
        k(   29) = (  -0.3750000   0.3750000   0.1250000), wk =   0.0625000
        k(   30) = (  -0.3750000  -0.3750000   0.3750000), wk =   0.0625000
        k(   31) = (  -0.3750000   0.3750000  -0.3750000), wk =   0.0625000
        k(   32) = (   0.3750000  -0.3750000  -0.3750000), wk =   0.0625000

     Dense  grid:  1061107 G-vectors     FFT dimensions: ( 128, 128, 128)

     Estimated max dynamical RAM per process >       6.82 GB

     Estimated total dynamical RAM >      27.27 GB

     Initial potential from superposition of free atoms

     starting charge  351.69472, renormalised to  352.00000
     Starting wfcs are  208 randomized atomic wfcs

     total cpu time spent up to now is       17.8 secs

     Self-consistent Calculation

     iteration #  1     ecut=    70.00 Ry     beta= 0.70
     Davidson diagonalization with overlap
     ethr =  1.00E-02,  avg # of iterations =  2.0

     Threshold (ethr) on eigenvalues was too large:
     Diagonalizing with lowered threshold

     Davidson diagonalization with overlap
     ethr =  2.17E-04,  avg # of iterations =  4.0

     total cpu time spent up to now is       38.7 secs

     total energy              =   -2256.03077710 Ry
     estimated scf accuracy    <       0.65948402 Ry

     iteration #  2     ecut=    70.00 Ry     beta= 0.70
     Davidson diagonalization with overlap
     ethr =  1.87E-04,  avg # of iterations =  3.3

     total cpu time spent up to now is       51.7 secs

     total energy              =   -2256.22005938 Ry
     estimated scf accuracy    <       0.34932904 Ry

     iteration #  3     ecut=    70.00 Ry     beta= 0.70
     Davidson diagonalization with overlap
     ethr =  9.92E-05,  avg # of iterations =  3.0

     total cpu time spent up to now is       63.5 secs

     total energy              =   -2256.28994757 Ry
     estimated scf accuracy    <       0.04057141 Ry

     iteration #  4     ecut=    70.00 Ry     beta= 0.70
     Davidson diagonalization with overlap
     ethr =  1.15E-05,  avg # of iterations =  3.7

     total cpu time spent up to now is       76.0 secs

     total energy              =   -2256.30154556 Ry
     estimated scf accuracy    <       0.00366881 Ry

     iteration #  5     ecut=    70.00 Ry     beta= 0.70
     Davidson diagonalization with overlap
     ethr =  1.04E-06,  avg # of iterations =  4.1

     total cpu time spent up to now is       89.2 secs

     total energy              =   -2256.30223440 Ry
     estimated scf accuracy    <       0.00174585 Ry

     iteration #  6     ecut=    70.00 Ry     beta= 0.70
     Davidson diagonalization with overlap
     ethr =  4.96E-07,  avg # of iterations =  3.0

     total cpu time spent up to now is      101.4 secs

     total energy              =   -2256.30257330 Ry
     estimated scf accuracy    <       0.00019361 Ry

     iteration #  7     ecut=    70.00 Ry     beta= 0.70
     Davidson diagonalization with overlap
     ethr =  5.50E-08,  avg # of iterations =  4.1

     total cpu time spent up to now is      114.5 secs

     total energy              =   -2256.30261704 Ry
     estimated scf accuracy    <       0.00003524 Ry

     iteration #  8     ecut=    70.00 Ry     beta= 0.70
     Davidson diagonalization with overlap
     ethr =  1.00E-08,  avg # of iterations =  4.0

     total cpu time spent up to now is      128.0 secs

     total energy              =   -2256.30262792 Ry
     estimated scf accuracy    <       0.00000950 Ry

     iteration #  9     ecut=    70.00 Ry     beta= 0.70
     Davidson diagonalization with overlap
     ethr =  2.70E-09,  avg # of iterations =  3.2

     total cpu time spent up to now is      140.6 secs

     total energy              =   -2256.30263038 Ry
     estimated scf accuracy    <       0.00000092 Ry

     iteration # 10     ecut=    70.00 Ry     beta= 0.70
     Davidson diagonalization with overlap
     ethr =  2.61E-10,  avg # of iterations =  5.2

     total cpu time spent up to now is      156.0 secs

     total energy              =   -2256.30263082 Ry
     estimated scf accuracy    <       0.00000039 Ry

     iteration # 11     ecut=    70.00 Ry     beta= 0.70
     Davidson diagonalization with overlap
     ethr =  1.11E-10,  avg # of iterations =  3.9

     total cpu time spent up to now is      169.3 secs

     total energy              =   -2256.30263090 Ry
     estimated scf accuracy    <       0.00000008 Ry

     iteration # 12     ecut=    70.00 Ry     beta= 0.70
     Davidson diagonalization with overlap
     ethr =  2.21E-11,  avg # of iterations =  5.0

     total cpu time spent up to now is      183.8 secs

     total energy              =   -2256.30263095 Ry
     estimated scf accuracy    <       0.00000002 Ry

     iteration # 13     ecut=    70.00 Ry     beta= 0.70
     Davidson diagonalization with overlap
     ethr =  5.19E-12,  avg # of iterations =  5.0

     total cpu time spent up to now is      198.0 secs

     total energy              =   -2256.30263095 Ry
     estimated scf accuracy    <          4.0E-09 Ry

     iteration # 14     ecut=    70.00 Ry     beta= 0.70
     Davidson diagonalization with overlap
     ethr =  1.13E-12,  avg # of iterations =  5.6

     total cpu time spent up to now is      212.6 secs

     total energy              =   -2256.30263096 Ry
     estimated scf accuracy    <          5.4E-10 Ry

     iteration # 15     ecut=    70.00 Ry     beta= 0.70
     Davidson diagonalization with overlap
     ethr =  1.52E-13,  avg # of iterations =  5.5

     total cpu time spent up to now is      229.0 secs

     total energy              =   -2256.30263096 Ry
     estimated scf accuracy    <          2.1E-10 Ry

     iteration # 16     ecut=    70.00 Ry     beta= 0.70
     Davidson diagonalization with overlap
     ethr =  1.00E-13,  avg # of iterations =  2.5

     total cpu time spent up to now is      240.4 secs

     End of self-consistent calculation

          k = 0.1250 0.1250 0.1250 (132670 PWs)   bands (ev):

   -18.5320 -18.4397 -18.4183 -18.4159 -18.3891 -18.3849 -18.3732 -18.3684
   -18.3619 -18.3584 -18.3111 -18.3102 -18.2893 -18.2828 -18.2799 -18.2791
   -18.2711 -18.2710 -18.2619 -18.2609 -18.2600 -18.2555 -18.2552 -18.2378
   -18.2337 -18.2275 -18.2246 -18.2238 -18.2199 -18.2098 -18.2095 -18.2021
   -18.1991 -18.1980 -18.1949 -18.1904 -18.1889 -18.1724 -18.1065 -18.1021
   -18.0878 -18.0850 -18.0772 -18.0768 -18.0575 -18.0547 -18.0478 -18.0398
    -9.6745  -9.3888  -9.3633  -9.2681  -9.2007  -9.1480  -9.1017  -9.0788
    -9.0182  -8.9905  -8.9646  -8.9017  -8.8766  -8.8554  -8.8053  -8.8016
    -8.7850  -8.7614  -8.7451  -8.6857  -8.6179  -8.6112  -8.3825  -8.3476
    -5.3145  -5.2926  -5.2854  -5.2339  -5.2229  -5.2082  -5.2014  -5.1956
    -5.1868  -5.1801  -5.1765  -5.1703  -5.1348  -5.1257  -5.1207  -5.1036
    -5.0928  -5.0808  -5.0066  -5.0046  -5.0022  -4.9665  -4.9515  -4.9410
    -4.4623  -3.9790  -3.9338  -3.8819  -3.4223  -3.3734  -3.3228  -2.7543
    -0.8617  -0.7515  -0.6833  -0.6482  -0.5996  -0.5063  -0.4581  -0.4221
    -0.3657  -0.3385  -0.2861  -0.1473   0.3119   0.4107   0.4889   0.6094
     0.6172   0.6699   0.6866   0.7326   0.7525   0.8329   0.9138   0.9270
     0.9413   1.0197   1.0427   1.0587   1.0922   1.1293   1.1528   1.1964
     1.2197   1.2312   1.2684   1.2773   1.3013   1.3257   1.3458   1.3693
     1.3874   1.4140   1.4227   1.4603   1.4673   1.4912   1.5200   1.5428
     1.5788   1.6075   1.6489   1.6654   1.6740   1.7053   1.7259   1.7461
     1.7892   1.8259   1.8568   1.9871   2.0137   2.0714   2.0912   2.1063
     2.1609   2.1861   2.2598   2.3342   2.5763   2.7297   2.8108   3.1738

          k = 0.1250 0.1250 0.3750 (132608 PWs)   bands (ev):

   -18.5320 -18.4397 -18.4182 -18.4159 -18.3891 -18.3849 -18.3732 -18.3684
   -18.3619 -18.3584 -18.3111 -18.3102 -18.2893 -18.2828 -18.2799 -18.2791
   -18.2711 -18.2710 -18.2619 -18.2609 -18.2600 -18.2555 -18.2552 -18.2378
   -18.2337 -18.2275 -18.2246 -18.2238 -18.2199 -18.2098 -18.2095 -18.2021
   -18.1991 -18.1980 -18.1949 -18.1904 -18.1889 -18.1724 -18.1065 -18.1021
   -18.0878 -18.0850 -18.0772 -18.0768 -18.0575 -18.0547 -18.0478 -18.0398
    -9.6730  -9.3797  -9.3600  -9.2786  -9.2049  -9.1493  -9.1210  -9.0696
    -9.0236  -8.9927  -8.9676  -8.9045  -8.8646  -8.8478  -8.8058  -8.8015
    -8.7708  -8.7622  -8.7332  -8.6852  -8.6312  -8.6167  -8.3829  -8.3479
    -5.3143  -5.2923  -5.2852  -5.2336  -5.2228  -5.2084  -5.2009  -5.1964
    -5.1860  -5.1803  -5.1768  -5.1704  -5.1349  -5.1259  -5.1207  -5.1037
    -5.0923  -5.0809  -5.0067  -5.0048  -5.0024  -4.9666  -4.9517  -4.9408
    -4.3563  -4.0660  -3.8484  -3.8157  -3.5538  -3.4981  -3.2793  -2.9508
    -0.8404  -0.7202  -0.6208  -0.5477  -0.5065  -0.4486  -0.4193  -0.2800
    -0.1531  -0.0635  -0.0202   0.0477   0.3050   0.3963   0.4706   0.5066
     0.5530   0.5752   0.6105   0.6539   0.6839   0.7284   0.7514   0.7732
     0.8450   0.9246   0.9703   1.0032   1.0560   1.0876   1.1130   1.1524
     1.1900   1.2207   1.2412   1.2500   1.2973   1.3201   1.3444   1.3878
     1.3927   1.4277   1.4624   1.4752   1.4921   1.5118   1.5361   1.5499
     1.5968   1.6146   1.6543   1.6670   1.7034   1.7277   1.7514   1.7743
     1.8066   1.8425   1.8537   1.8875   1.9498   1.9780   2.0320   2.0640
     2.1277   2.1523   2.2364   2.3189   2.4000   2.4955   2.7399   2.9115

          k = 0.1250 0.3750 0.3750 (132616 PWs)   bands (ev):

   -18.5320 -18.4397 -18.4182 -18.4159 -18.3891 -18.3849 -18.3732 -18.3684
   -18.3619 -18.3584 -18.3111 -18.3102 -18.2893 -18.2828 -18.2799 -18.2791
   -18.2711 -18.2710 -18.2619 -18.2609 -18.2600 -18.2555 -18.2552 -18.2378
   -18.2337 -18.2275 -18.2246 -18.2238 -18.2199 -18.2098 -18.2095 -18.2021
   -18.1991 -18.1980 -18.1949 -18.1904 -18.1889 -18.1724 -18.1065 -18.1021
   -18.0878 -18.0850 -18.0772 -18.0768 -18.0575 -18.0547 -18.0478 -18.0398
    -9.6703  -9.3820  -9.3527  -9.2716  -9.2322  -9.1551  -9.1106  -9.0697
    -9.0428  -8.9822  -8.9458  -8.9071  -8.8696  -8.8464  -8.8174  -8.7977
    -8.7598  -8.7532  -8.7414  -8.6825  -8.6305  -8.6225  -8.3740  -8.3573
    -5.3142  -5.2924  -5.2852  -5.2334  -5.2232  -5.2086  -5.2003  -5.1966
    -5.1859  -5.1799  -5.1768  -5.1703  -5.1350  -5.1260  -5.1209  -5.1039
    -5.0922  -5.0809  -5.0069  -5.0047  -5.0025  -4.9668  -4.9514  -4.9412
    -4.2407  -4.0363  -3.9098  -3.7334  -3.6922  -3.4703  -3.3521  -3.1383
    -0.7534  -0.6345  -0.5345  -0.4537  -0.4247  -0.2779  -0.2212  -0.1591
    -0.0733   0.0102   0.0935   0.1543   0.2121   0.3567   0.4084   0.4444
     0.4922   0.5516   0.5859   0.5915   0.6397   0.6598   0.7121   0.7696
     0.8349   0.8875   0.9292   0.9498   1.0102   1.0268   1.0589   1.0988
     1.1141   1.1341   1.1823   1.2232   1.2480   1.2713   1.3421   1.3657
     1.4044   1.4229   1.4350   1.4603   1.5077   1.5529   1.5673   1.5950
     1.6105   1.6415   1.6535   1.6970   1.7116   1.7526   1.7598   1.7955
     1.8188   1.8399   1.8684   1.8746   1.9017   1.9421   1.9755   2.0113
     2.0663   2.1129   2.1878   2.2564   2.3229   2.4611   2.5198   2.6427

          k = 0.3750 0.3750 0.3750 (132612 PWs)   bands (ev):

   -18.5320 -18.4397 -18.4182 -18.4159 -18.3891 -18.3849 -18.3732 -18.3684
   -18.3619 -18.3584 -18.3111 -18.3102 -18.2893 -18.2828 -18.2799 -18.2791
   -18.2711 -18.2710 -18.2619 -18.2609 -18.2600 -18.2555 -18.2552 -18.2378
   -18.2337 -18.2275 -18.2246 -18.2238 -18.2199 -18.2098 -18.2095 -18.2021
   -18.1991 -18.1980 -18.1949 -18.1904 -18.1889 -18.1724 -18.1065 -18.1021
   -18.0878 -18.0850 -18.0772 -18.0768 -18.0575 -18.0547 -18.0478 -18.0398
    -9.6677  -9.3767  -9.3584  -9.2642  -9.2248  -9.1725  -9.1217  -9.0839
    -9.0590  -8.9519  -8.9268  -8.9073  -8.8685  -8.8416  -8.8302  -8.7983
    -8.7591  -8.7556  -8.7401  -8.6814  -8.6318  -8.6183  -8.3752  -8.3588
    -5.3143  -5.2925  -5.2851  -5.2333  -5.2231  -5.2085  -5.2004  -5.1967
    -5.1859  -5.1802  -5.1769  -5.1704  -5.1350  -5.1258  -5.1207  -5.1037
    -5.0923  -5.0809  -5.0066  -5.0046  -5.0025  -4.9666  -4.9515  -4.9412
    -4.1285  -3.9292  -3.8883  -3.7899  -3.6505  -3.5932  -3.5061  -3.2950
    -0.5907  -0.4156  -0.3587  -0.3189  -0.2410  -0.1850  -0.1379  -0.0796
    -0.0379   0.0363   0.0845   0.1706   0.2050   0.2587   0.3812   0.4133
     0.4636   0.5081   0.5354   0.5732   0.5848   0.6273   0.6604   0.7325
     0.8170   0.8496   0.9070   0.9448   0.9714   0.9975   1.0324   1.0621
     1.0854   1.1213   1.1359   1.1747   1.1888   1.2313   1.2984   1.3350
     1.3702   1.4260   1.4424   1.4754   1.5000   1.5380   1.5949   1.6248
     1.6524   1.6578   1.6693   1.7065   1.7288   1.7369   1.7498   1.7928
     1.8119   1.8242   1.8661   1.8706   1.9199   1.9420   1.9625   1.9964
     2.0165   2.0646   2.0908   2.1450   2.2012   2.2297   2.3157   2.3991

          k =-0.1250-0.1250 0.1250 (132670 PWs)   bands (ev):

   -18.5320 -18.4397 -18.4183 -18.4159 -18.3891 -18.3849 -18.3732 -18.3684
   -18.3619 -18.3584 -18.3111 -18.3102 -18.2893 -18.2828 -18.2799 -18.2791
   -18.2711 -18.2710 -18.2619 -18.2609 -18.2600 -18.2555 -18.2552 -18.2378
   -18.2337 -18.2275 -18.2246 -18.2238 -18.2199 -18.2098 -18.2095 -18.2021
   -18.1991 -18.1980 -18.1949 -18.1904 -18.1889 -18.1724 -18.1065 -18.1021
   -18.0878 -18.0850 -18.0772 -18.0768 -18.0575 -18.0547 -18.0478 -18.0398
    -9.6744  -9.3875  -9.3643  -9.2703  -9.1974  -9.1512  -9.1045  -9.0692
    -9.0235  -8.9916  -8.9616  -8.9020  -8.8742  -8.8580  -8.8113  -8.7984
    -8.7862  -8.7637  -8.7400  -8.6847  -8.6196  -8.6101  -8.3826  -8.3477
    -5.3145  -5.2927  -5.2853  -5.2338  -5.2230  -5.2079  -5.2016  -5.1956
    -5.1869  -5.1801  -5.1765  -5.1702  -5.1350  -5.1256  -5.1207  -5.1037
    -5.0927  -5.0808  -5.0067  -5.0047  -5.0021  -4.9664  -4.9514  -4.9410
    -4.4616  -3.9796  -3.9478  -3.8653  -3.4426  -3.3616  -3.3148  -2.7566
    -0.8741  -0.7420  -0.6651  -0.6442  -0.5890  -0.5192  -0.4791  -0.4345
    -0.3872  -0.3252  -0.2695  -0.1331   0.3132   0.4131   0.4907   0.6104
     0.6206   0.6658   0.6859   0.7298   0.7553   0.8477   0.8614   0.9300
     0.9524   0.9907   1.0458   1.0942   1.1067   1.1240   1.1743   1.1814
     1.2086   1.2347   1.2563   1.2794   1.2950   1.3291   1.3460   1.3605
     1.3946   1.4024   1.4257   1.4434   1.4653   1.4876   1.5115   1.5515
     1.5960   1.6290   1.6428   1.6561   1.6823   1.7034   1.7311   1.7467
     1.7919   1.8363   1.8520   1.9883   2.0231   2.0636   2.0988   2.1228
     2.1454   2.1856   2.2476   2.3295   2.5829   2.7433   2.7869   3.1907

          k =-0.1250 0.1250-0.1250 (132670 PWs)   bands (ev):

   -18.5320 -18.4397 -18.4183 -18.4159 -18.3891 -18.3849 -18.3732 -18.3684
   -18.3619 -18.3584 -18.3111 -18.3102 -18.2893 -18.2828 -18.2799 -18.2791
   -18.2711 -18.2710 -18.2619 -18.2609 -18.2600 -18.2555 -18.2552 -18.2378
   -18.2337 -18.2275 -18.2246 -18.2238 -18.2199 -18.2098 -18.2095 -18.2021
   -18.1991 -18.1980 -18.1949 -18.1904 -18.1889 -18.1724 -18.1065 -18.1021
   -18.0878 -18.0850 -18.0772 -18.0768 -18.0575 -18.0547 -18.0478 -18.0398
    -9.6744  -9.3909  -9.3608  -9.2688  -9.1992  -9.1472  -9.1026  -9.0814
    -9.0220  -8.9805  -8.9686  -8.9017  -8.8749  -8.8575  -8.8091  -8.7996
    -8.7779  -8.7711  -8.7416  -8.6845  -8.6183  -8.6113  -8.3826  -8.3475
    -5.3144  -5.2927  -5.2854  -5.2339  -5.2230  -5.2078  -5.2016  -5.1956
    -5.1870  -5.1802  -5.1765  -5.1702  -5.1349  -5.1257  -5.1208  -5.1037
    -5.0927  -5.0808  -5.0067  -5.0047  -5.0021  -4.9664  -4.9514  -4.9410
    -4.4621  -3.9923  -3.9086  -3.8916  -3.4393  -3.3634  -3.3156  -2.7579
    -0.8596  -0.7142  -0.6900  -0.6639  -0.5894  -0.5194  -0.4799  -0.4036
    -0.3895  -0.3375  -0.2776  -0.1473   0.3073   0.4157   0.4912   0.6144
     0.6282   0.6455   0.6961   0.7459   0.7536   0.8278   0.8801   0.9364
     0.9805   1.0076   1.0414   1.0586   1.0963   1.1119   1.1483   1.1785
     1.2070   1.2432   1.2556   1.2894   1.3170   1.3314   1.3452   1.3691
     1.3977   1.4086   1.4252   1.4466   1.4565   1.4964   1.5118   1.5290
     1.5918   1.6204   1.6567   1.6722   1.6887   1.7011   1.7341   1.7461
     1.7852   1.8174   1.8543   1.9998   2.0186   2.0663   2.1049   2.1207
     2.1413   2.1792   2.2598   2.3197   2.5869   2.7350   2.7938   3.1578

          k = 0.1250-0.1250-0.1250 (132670 PWs)   bands (ev):

   -18.5320 -18.4397 -18.4183 -18.4159 -18.3891 -18.3849 -18.3732 -18.3684
   -18.3619 -18.3584 -18.3111 -18.3102 -18.2893 -18.2828 -18.2799 -18.2791
   -18.2711 -18.2710 -18.2619 -18.2609 -18.2600 -18.2555 -18.2552 -18.2378
   -18.2337 -18.2275 -18.2246 -18.2238 -18.2199 -18.2098 -18.2095 -18.2021
   -18.1991 -18.1980 -18.1949 -18.1904 -18.1889 -18.1724 -18.1065 -18.1021
   -18.0878 -18.0850 -18.0772 -18.0768 -18.0575 -18.0547 -18.0478 -18.0398
    -9.6744  -9.3908  -9.3610  -9.2694  -9.2008  -9.1412  -9.1134  -9.0695
    -9.0250  -8.9819  -8.9681  -8.9043  -8.8747  -8.8580  -8.8097  -8.7985
    -8.7792  -8.7648  -8.7448  -8.6851  -8.6183  -8.6109  -8.3827  -8.3475
    -5.3145  -5.2926  -5.2854  -5.2338  -5.2230  -5.2082  -5.2013  -5.1955
    -5.1867  -5.1802  -5.1766  -5.1703  -5.1349  -5.1256  -5.1207  -5.1037
    -5.0928  -5.0807  -5.0068  -5.0046  -5.0021  -4.9664  -4.9514  -4.9410
    -4.4611  -4.0014  -3.9118  -3.8781  -3.4569  -3.3460  -3.3169  -2.7583
    -0.8556  -0.7306  -0.6850  -0.6657  -0.6020  -0.5078  -0.4792  -0.4051
    -0.3857  -0.3340  -0.2643  -0.1537   0.3060   0.4071   0.4913   0.6098
     0.6286   0.6632   0.6899   0.7285   0.7650   0.8301   0.8891   0.9427
     0.9663   1.0101   1.0480   1.0721   1.0981   1.1316   1.1571   1.1761
     1.2114   1.2256   1.2400   1.2759   1.2957   1.3181   1.3406   1.3617
     1.3837   1.4152   1.4404   1.4638   1.4723   1.4973   1.5281   1.5522
     1.5721   1.5971   1.6442   1.6584   1.6787   1.7162   1.7421   1.7457
     1.8042   1.8324   1.8542   1.9972   2.0062   2.0619   2.0958   2.1068
     2.1626   2.1835   2.2351   2.3348   2.5762   2.7309   2.8103   3.1735

          k =-0.1250-0.1250 0.3750 (132608 PWs)   bands (ev):

   -18.5320 -18.4397 -18.4182 -18.4159 -18.3891 -18.3849 -18.3732 -18.3684
   -18.3619 -18.3584 -18.3111 -18.3102 -18.2893 -18.2828 -18.2799 -18.2791
   -18.2711 -18.2710 -18.2619 -18.2609 -18.2600 -18.2555 -18.2552 -18.2378
   -18.2337 -18.2275 -18.2246 -18.2238 -18.2199 -18.2098 -18.2095 -18.2021
   -18.1991 -18.1980 -18.1949 -18.1904 -18.1889 -18.1724 -18.1065 -18.1021
   -18.0878 -18.0850 -18.0772 -18.0768 -18.0575 -18.0547 -18.0478 -18.0398
    -9.6729  -9.3772  -9.3625  -9.2802  -9.2022  -9.1524  -9.1216  -9.0622
    -9.0285  -8.9934  -8.9654  -8.9044  -8.8655  -8.8476  -8.8099  -8.7991
    -8.7733  -8.7641  -8.7283  -8.6834  -8.6336  -8.6157  -8.3830  -8.3479
    -5.3143  -5.2924  -5.2852  -5.2335  -5.2230  -5.2081  -5.2011  -5.1964
    -5.1861  -5.1802  -5.1768  -5.1703  -5.1351  -5.1258  -5.1207  -5.1038
    -5.0922  -5.0809  -5.0067  -5.0048  -5.0024  -4.9666  -4.9516  -4.9408
    -4.3545  -4.0727  -3.8480  -3.8054  -3.5607  -3.5049  -3.2668  -2.9556
    -0.8493  -0.7159  -0.6079  -0.5454  -0.4923  -0.4626  -0.4216  -0.2977
    -0.1701  -0.0693  -0.0087   0.0870   0.3087   0.4073   0.4599   0.4990
     0.5482   0.5899   0.6206   0.6414   0.6753   0.7046   0.7346   0.7972
     0.8314   0.9220   0.9420   1.0270   1.0614   1.0843   1.1266   1.1618
     1.1841   1.2325   1.2378   1.2687   1.2885   1.3043   1.3319   1.3903
     1.4184   1.4242   1.4497   1.4656   1.4720   1.5090   1.5392   1.5653
     1.6011   1.6138   1.6400   1.6622   1.7145   1.7427   1.7498   1.7686
     1.8081   1.8399   1.8700   1.9013   1.9658   1.9854   2.0289   2.0505
     2.1150   2.1529   2.2377   2.2903   2.4141   2.5016   2.7267   2.9275

          k =-0.1250 0.1250-0.3750 (132608 PWs)   bands (ev):

   -18.5320 -18.4397 -18.4182 -18.4159 -18.3891 -18.3849 -18.3732 -18.3684
   -18.3619 -18.3584 -18.3111 -18.3102 -18.2893 -18.2828 -18.2799 -18.2791
   -18.2711 -18.2710 -18.2619 -18.2609 -18.2600 -18.2555 -18.2552 -18.2378
   -18.2337 -18.2275 -18.2246 -18.2238 -18.2199 -18.2098 -18.2095 -18.2021
   -18.1991 -18.1980 -18.1949 -18.1904 -18.1889 -18.1724 -18.1065 -18.1021
   -18.0878 -18.0850 -18.0772 -18.0768 -18.0575 -18.0547 -18.0478 -18.0398
    -9.6729  -9.3809  -9.3593  -9.2784  -9.1997  -9.1576  -9.1158  -9.0736
    -9.0248  -8.9833  -8.9736  -8.9042  -8.8641  -8.8467  -8.8055  -8.8020
    -8.7744  -8.7646  -8.7288  -8.6842  -8.6326  -8.6163  -8.3831  -8.3478
    -5.3143  -5.2924  -5.2852  -5.2335  -5.2229  -5.2080  -5.2011  -5.1964
    -5.1861  -5.1804  -5.1768  -5.1703  -5.1350  -5.1259  -5.1208  -5.1038
    -5.0922  -5.0808  -5.0067  -5.0049  -5.0024  -4.9666  -4.9516  -4.9408
    -4.3563  -4.0649  -3.8633  -3.7998  -3.5622  -3.4905  -3.2781  -2.9544
    -0.8329  -0.6925  -0.6527  -0.5533  -0.4811  -0.4495  -0.4291  -0.3021
    -0.1584  -0.0671  -0.0078   0.0546   0.3062   0.4139   0.4587   0.5101
     0.5408   0.5877   0.6052   0.6539   0.6899   0.7049   0.7449   0.7836
     0.8374   0.9375   0.9722   1.0288   1.0372   1.0651   1.1123   1.1493
     1.1818   1.2106   1.2432   1.2746   1.3089   1.3399   1.3574   1.3819
     1.3927   1.4170   1.4224   1.4681   1.4908   1.5034   1.5312   1.5753
     1.6029   1.6296   1.6474   1.6792   1.7047   1.7277   1.7553   1.7700
     1.8156   1.8301   1.8538   1.8958   1.9679   1.9821   2.0450   2.0546
     2.1135   2.1610   2.2348   2.2768   2.4237   2.5056   2.7098   2.9109

          k = 0.1250-0.1250-0.3750 (132608 PWs)   bands (ev):

   -18.5320 -18.4397 -18.4182 -18.4159 -18.3891 -18.3849 -18.3732 -18.3684
   -18.3619 -18.3584 -18.3111 -18.3102 -18.2893 -18.2828 -18.2799 -18.2791
   -18.2711 -18.2710 -18.2619 -18.2609 -18.2600 -18.2555 -18.2552 -18.2378
   -18.2337 -18.2275 -18.2246 -18.2238 -18.2199 -18.2098 -18.2095 -18.2021
   -18.1991 -18.1980 -18.1949 -18.1904 -18.1889 -18.1724 -18.1065 -18.1021
   -18.0878 -18.0850 -18.0772 -18.0768 -18.0575 -18.0547 -18.0478 -18.0398
    -9.6729  -9.3806  -9.3597  -9.2786  -9.2026  -9.1502  -9.1235  -9.0655
    -9.0279  -8.9837  -8.9737  -8.9056  -8.8667  -8.8463  -8.8083  -8.7980
    -8.7739  -8.7606  -8.7320  -8.6845  -8.6326  -8.6159  -8.3831  -8.3478
    -5.3143  -5.2923  -5.2852  -5.2335  -5.2229  -5.2085  -5.2008  -5.1964
    -5.1859  -5.1804  -5.1768  -5.1704  -5.1350  -5.1258  -5.1207  -5.1038
    -5.0922  -5.0808  -5.0068  -5.0048  -5.0024  -4.9666  -4.9516  -4.9408
    -4.3538  -4.0745  -3.8504  -3.8003  -3.5753  -3.4880  -3.2707  -2.9559
    -0.8332  -0.6880  -0.6603  -0.5456  -0.5148  -0.4475  -0.4176  -0.2762
    -0.1705  -0.0643  -0.0213   0.0768   0.3053   0.3959   0.4525   0.4984
     0.5503   0.5822   0.6402   0.6487   0.6880   0.7173   0.7484   0.7876
     0.8229   0.9300   0.9579   1.0214   1.0655   1.0800   1.1091   1.1549
     1.1842   1.2008   1.2410   1.2774   1.2886   1.3243   1.3380   1.3733
     1.4150   1.4182   1.4397   1.4756   1.4950   1.5093   1.5455   1.5688
     1.5792   1.6079   1.6535   1.6692   1.7158   1.7342   1.7558   1.7797
     1.8165   1.8327   1.8712   1.8949   1.9514   1.9818   2.0279   2.0419
     2.1231   2.1521   2.2410   2.3123   2.3889   2.5111   2.7171   2.9198

          k = 0.3750-0.1250 0.1250 (132608 PWs)   bands (ev):

   -18.5320 -18.4397 -18.4183 -18.4159 -18.3891 -18.3849 -18.3732 -18.3684
   -18.3619 -18.3584 -18.3111 -18.3102 -18.2893 -18.2828 -18.2799 -18.2791
   -18.2711 -18.2710 -18.2619 -18.2609 -18.2600 -18.2555 -18.2552 -18.2378
   -18.2337 -18.2275 -18.2246 -18.2238 -18.2199 -18.2098 -18.2095 -18.2021
   -18.1991 -18.1980 -18.1949 -18.1904 -18.1889 -18.1724 -18.1065 -18.1021
   -18.0878 -18.0850 -18.0772 -18.0768 -18.0575 -18.0547 -18.0478 -18.0398
    -9.6712  -9.3874  -9.3654  -9.2643  -9.2065  -9.1473  -9.1226  -9.0740
    -9.0370  -8.9846  -8.9333  -8.9047  -8.8698  -8.8576  -8.8132  -8.8022
    -8.7794  -8.7666  -8.7430  -8.6835  -8.6190  -8.6076  -8.3833  -8.3505
    -5.3143  -5.2927  -5.2852  -5.2336  -5.2228  -5.2077  -5.2014  -5.1955
    -5.1869  -5.1802  -5.1763  -5.1702  -5.1351  -5.1261  -5.1209  -5.1037
    -5.0929  -5.0810  -5.0067  -5.0048  -5.0023  -4.9664  -4.9517  -4.9412
    -4.3368  -4.1181  -3.8387  -3.7647  -3.6130  -3.4974  -3.2328  -2.9584
    -0.8367  -0.6823  -0.6492  -0.5538  -0.5409  -0.4301  -0.3813  -0.3028
    -0.1932  -0.1047  -0.0061   0.0548   0.2639   0.4264   0.4517   0.5168
     0.5354   0.6089   0.6231   0.6399   0.6763   0.6996   0.7758   0.8185
     0.8813   0.9169   0.9732   1.0104   1.0432   1.0986   1.1187   1.1589
     1.1983   1.2245   1.2505   1.2600   1.3035   1.3178   1.3346   1.3760
     1.3838   1.4004   1.4237   1.4546   1.4825   1.5010   1.5713   1.5775
     1.5948   1.6182   1.6648   1.6847   1.7034   1.7249   1.7388   1.7583
     1.7725   1.8004   1.8642   1.9283   1.9981   2.0386   2.0561   2.0909
     2.1138   2.1467   2.2217   2.2507   2.3811   2.4743   2.7707   2.8862

          k =-0.3750-0.1250-0.1250 (132608 PWs)   bands (ev):

   -18.5320 -18.4397 -18.4183 -18.4159 -18.3891 -18.3849 -18.3732 -18.3684
   -18.3619 -18.3584 -18.3111 -18.3102 -18.2893 -18.2828 -18.2799 -18.2791
   -18.2711 -18.2710 -18.2619 -18.2609 -18.2600 -18.2555 -18.2552 -18.2378
   -18.2337 -18.2275 -18.2246 -18.2238 -18.2199 -18.2098 -18.2095 -18.2021
   -18.1991 -18.1980 -18.1949 -18.1904 -18.1889 -18.1724 -18.1065 -18.1021
   -18.0878 -18.0850 -18.0772 -18.0768 -18.0575 -18.0547 -18.0478 -18.0398
    -9.6712  -9.3824  -9.3712  -9.2637  -9.2026  -9.1586  -9.1171  -9.0698
    -9.0355  -8.9892  -8.9330  -8.9041  -8.8709  -8.8564  -8.8165  -8.7960
    -8.7861  -8.7557  -8.7497  -8.6845  -8.6192  -8.6069  -8.3832  -8.3507
    -5.3144  -5.2926  -5.2852  -5.2337  -5.2227  -5.2080  -5.2012  -5.1955
    -5.1867  -5.1802  -5.1763  -5.1703  -5.1351  -5.1262  -5.1208  -5.1037
    -5.0929  -5.0810  -5.0067  -5.0047  -5.0024  -4.9664  -4.9517  -4.9412
    -4.3380  -4.1134  -3.8485  -3.7664  -3.5970  -3.5028  -3.2404  -2.9524
    -0.8358  -0.7103  -0.6529  -0.5407  -0.5286  -0.4355  -0.3714  -0.3172
    -0.1642  -0.1183   0.0086   0.0558   0.2737   0.4166   0.4314   0.5164
     0.5354   0.6028   0.6207   0.6351   0.6659   0.7097   0.7670   0.8206
     0.8705   0.9382   0.9811   1.0128   1.0519   1.1083   1.1368   1.1736
     1.1918   1.2169   1.2327   1.2673   1.2861   1.3179   1.3528   1.3693
     1.3854   1.3980   1.4342   1.4493   1.4815   1.5222   1.5525   1.5821
     1.5979   1.6192   1.6434   1.6699   1.6956   1.7124   1.7339   1.7634
     1.7879   1.8005   1.8618   1.9245   1.9911   2.0248   2.0583   2.0885
     2.1088   2.1675   2.2117   2.2772   2.3788   2.4710   2.7680   2.9063

          k = 0.3750 0.1250-0.1250 (132608 PWs)   bands (ev):

   -18.5320 -18.4397 -18.4183 -18.4159 -18.3891 -18.3849 -18.3732 -18.3684
   -18.3619 -18.3584 -18.3111 -18.3102 -18.2893 -18.2828 -18.2799 -18.2791
   -18.2711 -18.2710 -18.2619 -18.2609 -18.2600 -18.2555 -18.2552 -18.2378
   -18.2337 -18.2275 -18.2246 -18.2238 -18.2199 -18.2098 -18.2095 -18.2021
   -18.1991 -18.1980 -18.1949 -18.1904 -18.1889 -18.1724 -18.1065 -18.1021
   -18.0878 -18.0850 -18.0772 -18.0768 -18.0575 -18.0547 -18.0478 -18.0398
    -9.6712  -9.3817  -9.3712  -9.2664  -9.2040  -9.1506  -9.1235  -9.0624
    -9.0409  -8.9890  -8.9309  -8.9068  -8.8675  -8.8585  -8.8152  -8.8015
    -8.7869  -8.7602  -8.7414  -8.6836  -8.6199  -8.6068  -8.3832  -8.3507
    -5.3144  -5.2927  -5.2852  -5.2335  -5.2229  -5.2078  -5.2014  -5.1955
    -5.1868  -5.1801  -5.1764  -5.1702  -5.1352  -5.1260  -5.1208  -5.1037
    -5.0928  -5.0810  -5.0067  -5.0048  -5.0023  -4.9664  -4.9516  -4.9412
    -4.3353  -4.1205  -3.8411  -3.7637  -3.6058  -3.5038  -3.2320  -2.9568
    -0.8455  -0.6903  -0.6410  -0.5607  -0.5200  -0.4413  -0.3971  -0.3129
    -0.1733  -0.1035   0.0134   0.0786   0.2739   0.4120   0.4336   0.5202
     0.5358   0.5979   0.6126   0.6409   0.6679   0.7124   0.7669   0.8150
     0.8858   0.9086   0.9662   1.0108   1.0525   1.0935   1.1269   1.1715
     1.2033   1.2160   1.2505   1.2816   1.2959   1.3245   1.3368   1.3588
     1.3794   1.4057   1.4213   1.4454   1.4943   1.5056   1.5493   1.5715
     1.6037   1.6366   1.6553   1.6774   1.6874   1.7083   1.7401   1.7610
     1.7873   1.8261   1.8683   1.9203   1.9887   2.0335   2.0636   2.0832
     2.1167   2.1648   2.2044   2.2602   2.3741   2.4836   2.7443   2.9241

          k =-0.3750 0.1250 0.1250 (132608 PWs)   bands (ev):

   -18.5320 -18.4397 -18.4183 -18.4159 -18.3891 -18.3849 -18.3732 -18.3684
   -18.3619 -18.3584 -18.3111 -18.3102 -18.2893 -18.2828 -18.2799 -18.2791
   -18.2711 -18.2710 -18.2619 -18.2609 -18.2600 -18.2555 -18.2552 -18.2378
   -18.2337 -18.2275 -18.2246 -18.2238 -18.2199 -18.2098 -18.2095 -18.2021
   -18.1991 -18.1980 -18.1949 -18.1904 -18.1889 -18.1724 -18.1065 -18.1021
   -18.0878 -18.0850 -18.0772 -18.0768 -18.0575 -18.0547 -18.0478 -18.0398
    -9.6712  -9.3863  -9.3672  -9.2638  -9.2060  -9.1486  -9.1259  -9.0636
    -9.0403  -8.9870  -8.9302  -8.9098  -8.8674  -8.8602  -8.8169  -8.7976
    -8.7810  -8.7575  -8.7494  -8.6839  -8.6195  -8.6068  -8.3834  -8.3505
    -5.3144  -5.2926  -5.2852  -5.2336  -5.2228  -5.2080  -5.2012  -5.1954
    -5.1866  -5.1802  -5.1764  -5.1703  -5.1352  -5.1260  -5.1209  -5.1038
    -5.0929  -5.0809  -5.0069  -5.0047  -5.0023  -4.9664  -4.9517  -4.9412
    -4.3339  -4.1253  -3.8330  -3.7593  -3.6210  -3.5024  -3.2235  -2.9612
    -0.8332  -0.7026  -0.6527  -0.5476  -0.5135  -0.4452  -0.3959  -0.2905
    -0.2005  -0.0981   0.0002   0.0681   0.2637   0.4115   0.4411   0.5159
     0.5420   0.6025   0.6295   0.6475   0.6755   0.6972   0.7637   0.8080
     0.8802   0.9266   0.9814   1.0349   1.0631   1.0954   1.1281   1.1522
     1.1868   1.1917   1.2449   1.2639   1.2931   1.3294   1.3522   1.3741
     1.3927   1.4041   1.4364   1.4562   1.4719   1.4971   1.5628   1.5667
     1.5877   1.6173   1.6486   1.6732   1.7076   1.7234   1.7459   1.7678
     1.7986   1.8173   1.8583   1.9161   1.9927   2.0370   2.0407   2.0801
     2.1041   2.1600   2.2210   2.2640   2.3683   2.4818   2.7680   2.9076

          k =-0.1250 0.3750 0.1250 (132608 PWs)   bands (ev):

   -18.5320 -18.4397 -18.4183 -18.4159 -18.3891 -18.3849 -18.3732 -18.3684
   -18.3619 -18.3584 -18.3111 -18.3102 -18.2893 -18.2828 -18.2799 -18.2791
   -18.2711 -18.2710 -18.2619 -18.2609 -18.2600 -18.2555 -18.2552 -18.2378
   -18.2337 -18.2275 -18.2246 -18.2238 -18.2199 -18.2098 -18.2095 -18.2021
   -18.1991 -18.1980 -18.1949 -18.1904 -18.1889 -18.1724 -18.1065 -18.1021
   -18.0878 -18.0850 -18.0772 -18.0768 -18.0575 -18.0547 -18.0478 -18.0398
    -9.6714  -9.3917  -9.3578  -9.2614  -9.2248  -9.1481  -9.1039  -9.0727
    -9.0405  -8.9744  -8.9438  -8.9035  -8.8772  -8.8599  -8.8205  -8.8040
    -8.7768  -8.7541  -8.7355  -8.6812  -8.6214  -8.6189  -8.3739  -8.3568
    -5.3143  -5.2925  -5.2852  -5.2334  -5.2230  -5.2079  -5.2010  -5.1960
    -5.1870  -5.1800  -5.1767  -5.1705  -5.1350  -5.1256  -5.1208  -5.1039
    -5.0926  -5.0806  -5.0071  -5.0047  -5.0023  -4.9666  -4.9513  -4.9415
    -4.3389  -4.1335  -3.8217  -3.7493  -3.6285  -3.5207  -3.1873  -2.9672
    -0.7668  -0.6889  -0.6547  -0.6250  -0.5453  -0.4429  -0.3936  -0.3338
    -0.2456  -0.1200   0.0325   0.1272   0.2471   0.3924   0.4518   0.4704
     0.5345   0.5945   0.6237   0.6692   0.6857   0.7416   0.7871   0.8294
     0.8815   0.9446   0.9845   1.0063   1.0258   1.0842   1.1382   1.1552
     1.1931   1.2122   1.2293   1.2701   1.2961   1.3255   1.3448   1.3565
     1.3775   1.4164   1.4513   1.4743   1.5068   1.5225   1.5516   1.5665
     1.5981   1.6197   1.6404   1.6762   1.7007   1.7230   1.7455   1.7770
     1.8027   1.8284   1.8566   1.8748   1.9459   1.9888   2.0390   2.0882
     2.1345   2.1827   2.2207   2.3220   2.4283   2.4845   2.7749   2.9343

          k =-0.1250-0.3750-0.1250 (132608 PWs)   bands (ev):

   -18.5320 -18.4397 -18.4183 -18.4159 -18.3891 -18.3849 -18.3732 -18.3684
   -18.3619 -18.3584 -18.3111 -18.3102 -18.2893 -18.2828 -18.2799 -18.2791
   -18.2711 -18.2710 -18.2619 -18.2609 -18.2600 -18.2555 -18.2552 -18.2378
   -18.2337 -18.2275 -18.2246 -18.2238 -18.2199 -18.2098 -18.2095 -18.2021
   -18.1991 -18.1980 -18.1949 -18.1904 -18.1889 -18.1724 -18.1065 -18.1021
   -18.0878 -18.0850 -18.0772 -18.0768 -18.0575 -18.0547 -18.0478 -18.0398
    -9.6715  -9.3901  -9.3598  -9.2610  -9.2197  -9.1582  -9.1017  -9.0718
    -9.0375  -8.9774  -8.9441  -8.8996  -8.8780  -8.8588  -8.8177  -8.8032
    -8.7861  -8.7507  -8.7348  -8.6817  -8.6230  -8.6172  -8.3735  -8.3570
    -5.3143  -5.2925  -5.2851  -5.2334  -5.2229  -5.2079  -5.2010  -5.1961
    -5.1870  -5.1800  -5.1766  -5.1704  -5.1349  -5.1258  -5.1208  -5.1038
    -5.0926  -5.0807  -5.0069  -5.0047  -5.0023  -4.9666  -4.9513  -4.9415
    -4.3411  -4.1302  -3.8170  -3.7661  -3.5841  -3.5543  -3.1935  -2.9602
    -0.7828  -0.6869  -0.6503  -0.6137  -0.5521  -0.4391  -0.3879  -0.3442
    -0.2457  -0.1074   0.0200   0.1491   0.2548   0.3888   0.4398   0.4634
     0.5334   0.5947   0.6147   0.6595   0.6885   0.7496   0.7818   0.8247
     0.8794   0.9453   0.9792   1.0081   1.0409   1.0845   1.1334   1.1512
     1.1979   1.2172   1.2343   1.2685   1.2906   1.3148   1.3449   1.3800
     1.4182   1.4372   1.4466   1.4607   1.4836   1.5230   1.5556   1.5714
     1.5901   1.6174   1.6428   1.6770   1.6873   1.7125   1.7308   1.7762
     1.8020   1.8255   1.8531   1.8751   1.9491   1.9894   2.0273   2.0858
     2.1315   2.1962   2.2443   2.3150   2.4196   2.5102   2.7599   2.9347

          k = 0.1250 0.3750-0.1250 (132608 PWs)   bands (ev):

   -18.5320 -18.4397 -18.4183 -18.4159 -18.3891 -18.3849 -18.3732 -18.3684
   -18.3619 -18.3584 -18.3111 -18.3102 -18.2893 -18.2828 -18.2799 -18.2791
   -18.2711 -18.2710 -18.2619 -18.2609 -18.2600 -18.2555 -18.2552 -18.2378
   -18.2337 -18.2275 -18.2246 -18.2238 -18.2199 -18.2098 -18.2095 -18.2021
   -18.1991 -18.1980 -18.1949 -18.1904 -18.1889 -18.1724 -18.1065 -18.1021
   -18.0878 -18.0850 -18.0772 -18.0768 -18.0575 -18.0547 -18.0478 -18.0398
    -9.6715  -9.3885  -9.3611  -9.2638  -9.2199  -9.1557  -9.0968  -9.0724
    -9.0418  -8.9771  -8.9421  -8.9008  -8.8771  -8.8602  -8.8208  -8.8053
    -8.7815  -8.7547  -8.7306  -8.6807  -8.6244  -8.6165  -8.3736  -8.3571
    -5.3143  -5.2926  -5.2851  -5.2333  -5.2231  -5.2075  -5.2013  -5.1961
    -5.1872  -5.1800  -5.1766  -5.1704  -5.1350  -5.1257  -5.1208  -5.1038
    -5.0925  -5.0807  -5.0069  -5.0048  -5.0023  -4.9666  -4.9513  -4.9415
    -4.3407  -4.1280  -3.8353  -3.7501  -3.6017  -3.5353  -3.1921  -2.9635
    -0.7849  -0.6909  -0.6474  -0.6170  -0.5391  -0.4318  -0.4115  -0.3174
    -0.2661  -0.1189   0.0291   0.1615   0.2648   0.3966   0.4412   0.4684
     0.5263   0.5830   0.6198   0.6626   0.6761   0.7296   0.7812   0.8342
     0.8765   0.9326   0.9475   1.0243   1.0400   1.1196   1.1526   1.1656
     1.1756   1.2102   1.2415   1.2795   1.3000   1.3193   1.3405   1.3570
     1.3739   1.4081   1.4655   1.4750   1.4922   1.5281   1.5483   1.5577
     1.5887   1.6189   1.6576   1.6854   1.6880   1.7115   1.7451   1.7781
     1.8034   1.8128   1.8532   1.8847   1.9541   2.0039   2.0251   2.0958
     2.1290   2.2045   2.2296   2.2997   2.4306   2.4897   2.7643   2.9446

          k = 0.1250-0.3750 0.1250 (132608 PWs)   bands (ev):

   -18.5320 -18.4397 -18.4183 -18.4159 -18.3891 -18.3849 -18.3732 -18.3684
   -18.3619 -18.3584 -18.3111 -18.3102 -18.2893 -18.2828 -18.2799 -18.2791
   -18.2711 -18.2710 -18.2619 -18.2609 -18.2600 -18.2555 -18.2552 -18.2378
   -18.2337 -18.2275 -18.2246 -18.2238 -18.2199 -18.2098 -18.2095 -18.2021
   -18.1991 -18.1980 -18.1949 -18.1904 -18.1889 -18.1724 -18.1065 -18.1021
   -18.0878 -18.0850 -18.0772 -18.0768 -18.0575 -18.0547 -18.0478 -18.0398
    -9.6715  -9.3921  -9.3574  -9.2619  -9.2184  -9.1575  -9.1027  -9.0742
    -9.0373  -8.9745  -8.9448  -8.8997  -8.8766  -8.8601  -8.8189  -8.8034
    -8.7841  -8.7557  -8.7316  -8.6804  -8.6234  -8.6174  -8.3738  -8.3567
    -5.3142  -5.2926  -5.2852  -5.2334  -5.2231  -5.2075  -5.2012  -5.1961
    -5.1872  -5.1801  -5.1766  -5.1703  -5.1349  -5.1258  -5.1209  -5.1038
    -5.0926  -5.0807  -5.0069  -5.0048  -5.0023  -4.9666  -4.9513  -4.9415
    -4.3403  -4.1336  -3.8051  -3.7676  -3.6067  -3.5424  -3.1839  -2.9680
    -0.7764  -0.6778  -0.6502  -0.6275  -0.5362  -0.4305  -0.3920  -0.3464
    -0.2568  -0.1399   0.0392   0.1343   0.2570   0.4020   0.4538   0.4682
     0.5308   0.5896   0.6290   0.6504   0.6843   0.7341   0.7875   0.8140
     0.8901   0.9368   0.9903   1.0088   1.0420   1.0828   1.1254   1.1627
     1.1868   1.2165   1.2381   1.2665   1.2909   1.3245   1.3507   1.3649
     1.4095   1.4290   1.4465   1.4688   1.4833   1.5271   1.5387   1.5516
     1.6137   1.6242   1.6538   1.6719   1.6907   1.7292   1.7487   1.7734
     1.7965   1.8219   1.8451   1.8741   1.9450   1.9953   2.0569   2.0976
     2.1151   2.1859   2.2187   2.3258   2.4278   2.4930   2.7682   2.9218

          k =-0.1250-0.3750 0.3750 (132616 PWs)   bands (ev):

   -18.5320 -18.4397 -18.4182 -18.4159 -18.3891 -18.3849 -18.3732 -18.3684
   -18.3619 -18.3584 -18.3111 -18.3102 -18.2893 -18.2828 -18.2799 -18.2791
   -18.2711 -18.2710 -18.2619 -18.2609 -18.2600 -18.2555 -18.2552 -18.2378
   -18.2337 -18.2275 -18.2246 -18.2238 -18.2199 -18.2098 -18.2095 -18.2021
   -18.1991 -18.1980 -18.1949 -18.1904 -18.1889 -18.1724 -18.1065 -18.1021
   -18.0878 -18.0850 -18.0772 -18.0768 -18.0575 -18.0547 -18.0478 -18.0398
    -9.6703  -9.3797  -9.3547  -9.2743  -9.2318  -9.1535  -9.1065  -9.0701
    -9.0460  -8.9814  -8.9452  -8.9073  -8.8711  -8.8456  -8.8192  -8.7974
    -8.7637  -8.7554  -8.7342  -8.6811  -8.6329  -8.6214  -8.3741  -8.3574
    -5.3142  -5.2925  -5.2851  -5.2333  -5.2233  -5.2083  -5.2005  -5.1966
    -5.1860  -5.1798  -5.1769  -5.1702  -5.1352  -5.1259  -5.1209  -5.1039
    -5.0921  -5.0809  -5.0069  -5.0047  -5.0024  -4.9668  -4.9513  -4.9412
    -4.2397  -4.0295  -3.9236  -3.7380  -3.6830  -3.4714  -3.3431  -3.1450
    -0.7552  -0.6415  -0.5278  -0.4728  -0.3885  -0.2581  -0.2231  -0.1878
    -0.1054  -0.0080   0.0992   0.1908   0.2598   0.3652   0.4175   0.4432
     0.4815   0.5353   0.5847   0.5897   0.6149   0.6640   0.6941   0.7396
     0.8248   0.8924   0.9222   0.9667   1.0038   1.0530   1.0686   1.0979
     1.1146   1.1468   1.1907   1.2237   1.2357   1.2704   1.3495   1.3628
     1.3874   1.4014   1.4469   1.4758   1.5058   1.5483   1.5622   1.5911
     1.6061   1.6268   1.6524   1.7076   1.7174   1.7434   1.7830   1.7950
     1.8199   1.8478   1.8570   1.8943   1.9334   1.9482   1.9688   2.0054
     2.0686   2.0947   2.1672   2.2557   2.3232   2.4547   2.5195   2.6564

          k =-0.1250 0.3750-0.3750 (132616 PWs)   bands (ev):

   -18.5320 -18.4397 -18.4182 -18.4159 -18.3891 -18.3849 -18.3732 -18.3684
   -18.3619 -18.3584 -18.3111 -18.3102 -18.2893 -18.2828 -18.2799 -18.2791
   -18.2711 -18.2710 -18.2619 -18.2609 -18.2600 -18.2555 -18.2552 -18.2378
   -18.2337 -18.2275 -18.2246 -18.2238 -18.2199 -18.2098 -18.2095 -18.2021
   -18.1991 -18.1980 -18.1949 -18.1904 -18.1889 -18.1724 -18.1065 -18.1021
   -18.0878 -18.0850 -18.0772 -18.0768 -18.0575 -18.0547 -18.0478 -18.0398
    -9.6703  -9.3831  -9.3520  -9.2724  -9.2276  -9.1607  -9.1063  -9.0747
    -9.0409  -8.9801  -8.9476  -8.9065  -8.8688  -8.8453  -8.8177  -8.7971
    -8.7676  -8.7554  -8.7335  -8.6813  -8.6328  -8.6213  -8.3743  -8.3570
    -5.3142  -5.2925  -5.2852  -5.2333  -5.2233  -5.2083  -5.2005  -5.1966
    -5.1860  -5.1800  -5.1768  -5.1702  -5.1351  -5.1260  -5.1209  -5.1039
    -5.0922  -5.0808  -5.0069  -5.0047  -5.0024  -4.9668  -4.9513  -4.9412
    -4.2405  -4.0364  -3.9117  -3.7342  -3.6869  -3.4800  -3.3377  -3.1466
    -0.7395  -0.6431  -0.5365  -0.4537  -0.4115  -0.2530  -0.2225  -0.1819
    -0.1132  -0.0237   0.1118   0.1740   0.2505   0.3731   0.4034   0.4466
     0.4691   0.5384   0.5847   0.6180   0.6318   0.6451   0.6982   0.7655
     0.8110   0.8973   0.9326   0.9651   1.0206   1.0392   1.0540   1.0936
     1.1170   1.1404   1.1770   1.2099   1.2643   1.2803   1.3470   1.3581
     1.3883   1.4121   1.4246   1.4655   1.5162   1.5501   1.5679   1.5838
     1.6089   1.6409   1.6728   1.7059   1.7182   1.7469   1.7691   1.8013
     1.8127   1.8424   1.8622   1.8778   1.9286   1.9456   1.9726   2.0202
     2.0594   2.0995   2.1672   2.2628   2.3284   2.4374   2.5167   2.6477

          k = 0.1250-0.3750-0.3750 (132616 PWs)   bands (ev):

   -18.5320 -18.4397 -18.4182 -18.4159 -18.3891 -18.3849 -18.3732 -18.3684
   -18.3619 -18.3584 -18.3111 -18.3102 -18.2893 -18.2828 -18.2799 -18.2791
   -18.2711 -18.2710 -18.2619 -18.2609 -18.2600 -18.2555 -18.2552 -18.2378
   -18.2337 -18.2275 -18.2246 -18.2238 -18.2199 -18.2098 -18.2095 -18.2021
   -18.1991 -18.1980 -18.1949 -18.1904 -18.1889 -18.1724 -18.1065 -18.1021
   -18.0878 -18.0850 -18.0772 -18.0768 -18.0575 -18.0547 -18.0478 -18.0398
    -9.6702  -9.3825  -9.3525  -9.2717  -9.2338  -9.1518  -9.1069  -9.0745
    -9.0433  -8.9802  -8.9465  -8.9087  -8.8716  -8.8450  -8.8190  -8.7962
    -8.7580  -8.7540  -8.7408  -8.6823  -8.6313  -8.6220  -8.3744  -8.3571
    -5.3143  -5.2924  -5.2852  -5.2333  -5.2232  -5.2086  -5.2003  -5.1965
    -5.1858  -5.1799  -5.1769  -5.1703  -5.1351  -5.1259  -5.1209  -5.1040
    -5.0922  -5.0808  -5.0070  -5.0046  -5.0024  -4.9668  -4.9513  -4.9412
    -4.2374  -4.0392  -3.9131  -3.7401  -3.6882  -3.4598  -3.3505  -3.1454
    -0.7378  -0.6456  -0.5287  -0.4669  -0.4066  -0.2980  -0.2281  -0.1597
    -0.0801   0.0144   0.0971   0.1624   0.2131   0.3627   0.4082   0.4540
     0.4934   0.5460   0.5791   0.6115   0.6246   0.6714   0.7127   0.7510
     0.8354   0.8727   0.9379   0.9684   0.9880   1.0236   1.0639   1.1025
     1.1178   1.1367   1.1723   1.2275   1.2602   1.2795   1.3368   1.3673
     1.3804   1.4027   1.4524   1.4701   1.5074   1.5289   1.5654   1.5758
     1.6082   1.6536   1.6710   1.7082   1.7226   1.7393   1.7757   1.8038
     1.8210   1.8483   1.8557   1.8820   1.9204   1.9328   1.9864   2.0046
     2.0546   2.1236   2.1779   2.2416   2.3264   2.4345   2.5171   2.6616

          k = 0.3750 0.1250-0.3750 (132616 PWs)   bands (ev):

   -18.5320 -18.4397 -18.4182 -18.4159 -18.3891 -18.3849 -18.3732 -18.3684
   -18.3619 -18.3584 -18.3111 -18.3102 -18.2893 -18.2828 -18.2799 -18.2791
   -18.2711 -18.2710 -18.2619 -18.2609 -18.2600 -18.2555 -18.2552 -18.2378
   -18.2337 -18.2275 -18.2246 -18.2238 -18.2199 -18.2098 -18.2095 -18.2021
   -18.1991 -18.1980 -18.1949 -18.1904 -18.1889 -18.1724 -18.1065 -18.1021
   -18.0878 -18.0850 -18.0772 -18.0768 -18.0575 -18.0547 -18.0478 -18.0398
    -9.6699  -9.3729  -9.3692  -9.2709  -9.2047  -9.1575  -9.1343  -9.0746
    -9.0416  -8.9895  -8.9295  -8.9062  -8.8608  -8.8420  -8.8228  -8.7949
    -8.7766  -8.7657  -8.7283  -8.6832  -8.6333  -8.6115  -8.3831  -8.3509
    -5.3143  -5.2924  -5.2851  -5.2334  -5.2229  -5.2081  -5.2011  -5.1963
    -5.1860  -5.1802  -5.1768  -5.1703  -5.1351  -5.1259  -5.1209  -5.1038
    -5.0922  -5.0810  -5.0066  -5.0048  -5.0025  -4.9665  -4.9518  -4.9409
    -4.2300  -4.0514  -3.8982  -3.7311  -3.6470  -3.5391  -3.3573  -3.1301
    -0.8261  -0.6486  -0.4608  -0.3968  -0.3380  -0.2721  -0.2236  -0.1860
    -0.1172   0.0059   0.0795   0.1969   0.2459   0.3382   0.4473   0.4665
     0.5142   0.5266   0.5522   0.5908   0.6171   0.6301   0.6673   0.7355
     0.8066   0.8463   0.9173   0.9769   1.0070   1.0590   1.0744   1.1098
     1.1445   1.1842   1.1999   1.2369   1.2478   1.2946   1.3039   1.3485
     1.3826   1.4055   1.4511   1.4614   1.4883   1.5187   1.5535   1.5836
     1.6430   1.6536   1.6711   1.6867   1.7161   1.7345   1.7542   1.7620
     1.8209   1.8498   1.8767   1.9142   1.9433   1.9684   2.0050   2.0203
     2.0452   2.1109   2.1376   2.1787   2.3018   2.3590   2.5045   2.6830

          k =-0.3750-0.1250-0.3750 (132616 PWs)   bands (ev):

   -18.5320 -18.4397 -18.4182 -18.4159 -18.3891 -18.3849 -18.3732 -18.3684
   -18.3619 -18.3584 -18.3111 -18.3102 -18.2893 -18.2828 -18.2799 -18.2791
   -18.2711 -18.2710 -18.2619 -18.2609 -18.2600 -18.2555 -18.2552 -18.2378
   -18.2337 -18.2275 -18.2246 -18.2238 -18.2199 -18.2098 -18.2095 -18.2021
   -18.1991 -18.1980 -18.1949 -18.1904 -18.1889 -18.1724 -18.1065 -18.1021
   -18.0878 -18.0850 -18.0772 -18.0768 -18.0575 -18.0547 -18.0478 -18.0398
    -9.6699  -9.3748  -9.3681  -9.2679  -9.2045  -9.1637  -9.1295  -9.0786
    -9.0394  -8.9893  -8.9307  -8.9053  -8.8609  -8.8420  -8.8226  -8.7944
    -8.7720  -8.7648  -8.7335  -8.6846  -8.6320  -8.6117  -8.3831  -8.3509
    -5.3143  -5.2924  -5.2851  -5.2335  -5.2228  -5.2083  -5.2008  -5.1963
    -5.1859  -5.1803  -5.1768  -5.1704  -5.1350  -5.1260  -5.1209  -5.1038
    -5.0923  -5.0810  -5.0066  -5.0048  -5.0025  -4.9665  -4.9519  -4.9409
    -4.2376  -4.0147  -3.9366  -3.7292  -3.6502  -3.5013  -3.3939  -3.1206
    -0.8201  -0.6586  -0.4737  -0.3931  -0.3263  -0.2986  -0.2008  -0.1465
    -0.0702  -0.0203   0.0455   0.1118   0.2473   0.3781   0.4247   0.4724
     0.5178   0.5325   0.5578   0.5830   0.6227   0.6546   0.6757   0.7326
     0.8181   0.8623   0.9127   0.9752   1.0153   1.0365   1.0921   1.1186
     1.1510   1.1763   1.1913   1.2326   1.2432   1.2779   1.3081   1.3305
     1.3896   1.4092   1.4472   1.4674   1.4974   1.5387   1.5640   1.5858
     1.6062   1.6588   1.6692   1.6968   1.7256   1.7386   1.7560   1.7761
     1.7970   1.8257   1.8482   1.8945   1.9417   1.9728   1.9906   2.0361
     2.0543   2.1184   2.1482   2.1945   2.3008   2.3550   2.5257   2.6647

          k = 0.3750-0.1250 0.3750 (132616 PWs)   bands (ev):

   -18.5320 -18.4397 -18.4182 -18.4159 -18.3891 -18.3849 -18.3732 -18.3684
   -18.3619 -18.3584 -18.3111 -18.3102 -18.2893 -18.2828 -18.2799 -18.2791
   -18.2711 -18.2710 -18.2619 -18.2609 -18.2600 -18.2555 -18.2552 -18.2378
   -18.2337 -18.2275 -18.2246 -18.2238 -18.2199 -18.2098 -18.2095 -18.2021
   -18.1991 -18.1980 -18.1949 -18.1904 -18.1889 -18.1724 -18.1065 -18.1021
   -18.0878 -18.0850 -18.0772 -18.0768 -18.0575 -18.0547 -18.0478 -18.0398
    -9.6699  -9.3795  -9.3630  -9.2686  -9.2039  -9.1617  -9.1290  -9.0829
    -9.0405  -8.9853  -8.9328  -8.9047  -8.8601  -8.8423  -8.8198  -8.7931
    -8.7796  -8.7662  -8.7288  -8.6840  -8.6324  -8.6120  -8.3832  -8.3507
    -5.3142  -5.2924  -5.2851  -5.2335  -5.2229  -5.2080  -5.2011  -5.1963
    -5.1860  -5.1804  -5.1767  -5.1703  -5.1350  -5.1260  -5.1210  -5.1038
    -5.0923  -5.0810  -5.0066  -5.0048  -5.0025  -4.9665  -4.9519  -4.9408
    -4.2367  -4.0194  -3.9334  -3.7242  -3.6577  -3.4972  -3.3909  -3.1255
    -0.8171  -0.6438  -0.4680  -0.3897  -0.3466  -0.3070  -0.2094  -0.1484
    -0.0674  -0.0286   0.0457   0.1174   0.2499   0.3914   0.4519   0.4719
     0.5083   0.5208   0.5581   0.5894   0.6166   0.6501   0.6845   0.7187
     0.8229   0.8562   0.9190   0.9692   0.9983   1.0398   1.0852   1.1180
     1.1411   1.1640   1.2103   1.2330   1.2529   1.2855   1.3133   1.3508
     1.3735   1.4103   1.4189   1.4687   1.4963   1.5104   1.5743   1.5967
     1.6286   1.6510   1.6889   1.7048   1.7247   1.7411   1.7497   1.7793
     1.7942   1.8201   1.8756   1.8984   1.9513   1.9781   2.0027   2.0315
     2.0637   2.0941   2.1368   2.1885   2.2708   2.3739   2.5155   2.6591

          k =-0.3750 0.1250 0.3750 (132616 PWs)   bands (ev):

   -18.5320 -18.4397 -18.4182 -18.4159 -18.3891 -18.3849 -18.3732 -18.3684
   -18.3619 -18.3584 -18.3111 -18.3102 -18.2893 -18.2828 -18.2799 -18.2791
   -18.2711 -18.2710 -18.2619 -18.2609 -18.2600 -18.2555 -18.2552 -18.2378
   -18.2337 -18.2275 -18.2246 -18.2238 -18.2199 -18.2098 -18.2095 -18.2021
   -18.1991 -18.1980 -18.1949 -18.1904 -18.1889 -18.1724 -18.1065 -18.1021
   -18.0878 -18.0850 -18.0772 -18.0768 -18.0575 -18.0547 -18.0478 -18.0398
    -9.6699  -9.3772  -9.3662  -9.2678  -9.2022  -9.1651  -9.1321  -9.0731
    -9.0433  -8.9868  -8.9310  -8.9076  -8.8624  -8.8416  -8.8217  -8.7919
    -8.7781  -8.7616  -8.7323  -8.6840  -8.6331  -8.6111  -8.3833  -8.3507
    -5.3143  -5.2924  -5.2851  -5.2334  -5.2228  -5.2084  -5.2008  -5.1963
    -5.1858  -5.1804  -5.1768  -5.1704  -5.1350  -5.1258  -5.1209  -5.1038
    -5.0923  -5.0810  -5.0067  -5.0048  -5.0025  -4.9665  -4.9519  -4.9409
    -4.2284  -4.0550  -3.8980  -3.7231  -3.6554  -3.5380  -3.3541  -3.1326
    -0.8162  -0.6526  -0.4694  -0.3957  -0.3412  -0.2567  -0.2298  -0.1821
    -0.1204   0.0021   0.0737   0.1866   0.2438   0.3380   0.4085   0.4739
     0.5022   0.5436   0.5755   0.5861   0.6296   0.6577   0.6812   0.7184
     0.7947   0.8539   0.9326   0.9849   1.0055   1.0416   1.0912   1.1123
     1.1584   1.1656   1.1881   1.2268   1.2543   1.2872   1.3090   1.3348
     1.3713   1.4141   1.4404   1.4733   1.4970   1.5275   1.5624   1.5856
     1.6088   1.6568   1.6669   1.7143   1.7225   1.7391   1.7603   1.7708
     1.8155   1.8388   1.8661   1.8865   1.9519   1.9697   1.9924   2.0209
     2.0498   2.1096   2.1318   2.2095   2.2742   2.3706   2.5137   2.6727

          k = 0.3750-0.3750 0.1250 (132616 PWs)   bands (ev):

   -18.5320 -18.4397 -18.4183 -18.4159 -18.3891 -18.3849 -18.3732 -18.3684
   -18.3619 -18.3584 -18.3111 -18.3102 -18.2893 -18.2828 -18.2799 -18.2791
   -18.2711 -18.2710 -18.2619 -18.2609 -18.2600 -18.2555 -18.2552 -18.2378
   -18.2337 -18.2275 -18.2246 -18.2238 -18.2199 -18.2098 -18.2095 -18.2021
   -18.1991 -18.1980 -18.1949 -18.1904 -18.1889 -18.1724 -18.1065 -18.1021
   -18.0878 -18.0850 -18.0772 -18.0768 -18.0575 -18.0547 -18.0478 -18.0398
    -9.6688  -9.3853  -9.3607  -9.2604  -9.2313  -9.1515  -9.1125  -9.0804
    -9.0559  -8.9474  -8.9309  -8.9053  -8.8718  -8.8607  -8.8265  -8.8035
    -8.7850  -8.7533  -8.7312  -8.6793  -8.6230  -8.6158  -8.3752  -8.3583
    -5.3142  -5.2926  -5.2851  -5.2332  -5.2230  -5.2074  -5.2012  -5.1962
    -5.1873  -5.1803  -5.1765  -5.1705  -5.1352  -5.1259  -5.1206  -5.1037
    -5.0927  -5.0807  -5.0068  -5.0048  -5.0024  -4.9664  -4.9514  -4.9417
    -4.2171  -4.0574  -3.9339  -3.7786  -3.6412  -3.4567  -3.3274  -3.1535
    -0.6759  -0.6182  -0.5864  -0.5204  -0.4250  -0.2827  -0.2468  -0.1622
    -0.0504  -0.0245   0.0704   0.1699   0.2087   0.3678   0.4156   0.4381
     0.5286   0.5467   0.5917   0.6316   0.6657   0.6840   0.7212   0.7611
     0.8059   0.8544   0.8774   0.9401   0.9618   0.9888   1.0508   1.0944
     1.1482   1.1939   1.2148   1.2479   1.2720   1.3074   1.3377   1.3633
     1.3832   1.4281   1.4463   1.4672   1.4985   1.5630   1.5756   1.5907
     1.6154   1.6343   1.6580   1.6885   1.7183   1.7297   1.7391   1.7761
     1.8120   1.8157   1.8624   1.9134   1.9269   1.9655   2.0011   2.0217
     2.0816   2.1263   2.1823   2.2249   2.2579   2.4173   2.5600   2.6260

          k =-0.3750-0.3750-0.1250 (132616 PWs)   bands (ev):

   -18.5320 -18.4397 -18.4183 -18.4159 -18.3891 -18.3849 -18.3732 -18.3684
   -18.3619 -18.3584 -18.3111 -18.3102 -18.2893 -18.2828 -18.2799 -18.2791
   -18.2711 -18.2710 -18.2619 -18.2609 -18.2600 -18.2555 -18.2552 -18.2378
   -18.2337 -18.2275 -18.2246 -18.2238 -18.2199 -18.2098 -18.2095 -18.2021
   -18.1991 -18.1980 -18.1949 -18.1904 -18.1889 -18.1724 -18.1065 -18.1021
   -18.0878 -18.0850 -18.0772 -18.0768 -18.0575 -18.0547 -18.0478 -18.0398
    -9.6688  -9.3806  -9.3664  -9.2615  -9.2260  -9.1609  -9.1085  -9.0722
    -9.0608  -8.9497  -8.9307  -8.9040  -8.8734  -8.8600  -8.8266  -8.8032
    -8.7849  -8.7494  -8.7344  -8.6804  -8.6238  -8.6145  -8.3750  -8.3586
    -5.3143  -5.2926  -5.2850  -5.2332  -5.2229  -5.2078  -5.2010  -5.1962
    -5.1871  -5.1803  -5.1765  -5.1706  -5.1351  -5.1259  -5.1206  -5.1036
    -5.0927  -5.0807  -5.0068  -5.0047  -5.0024  -4.9664  -4.9514  -4.9417
    -4.2223  -4.0125  -3.9863  -3.7709  -3.6343  -3.4317  -3.3686  -3.1384
    -0.6619  -0.6420  -0.5954  -0.5169  -0.4341  -0.3029  -0.2176  -0.1463
    -0.0611   0.0221   0.0513   0.2108   0.2315   0.2879   0.3991   0.4502
     0.5061   0.5417   0.5892   0.6332   0.6583   0.6774   0.7336   0.7789
     0.8060   0.8638   0.8898   0.9258   0.9659   1.0090   1.0740   1.0921
     1.1324   1.1853   1.2141   1.2355   1.2599   1.3100   1.3515   1.3675
     1.3954   1.4223   1.4460   1.4730   1.5127   1.5588   1.5718   1.6013
     1.6111   1.6278   1.6608   1.6709   1.6925   1.7202   1.7420   1.7695
     1.8120   1.8297   1.8473   1.9072   1.9396   1.9490   1.9888   2.0498
     2.0817   2.1362   2.1859   2.2224   2.2515   2.4494   2.5263   2.6484

          k = 0.3750 0.3750-0.1250 (132616 PWs)   bands (ev):

   -18.5320 -18.4397 -18.4183 -18.4159 -18.3891 -18.3849 -18.3732 -18.3684
   -18.3619 -18.3584 -18.3111 -18.3102 -18.2893 -18.2828 -18.2799 -18.2791
   -18.2711 -18.2710 -18.2619 -18.2609 -18.2600 -18.2555 -18.2552 -18.2378
   -18.2337 -18.2275 -18.2246 -18.2238 -18.2199 -18.2098 -18.2095 -18.2021
   -18.1991 -18.1980 -18.1949 -18.1904 -18.1889 -18.1724 -18.1065 -18.1021
   -18.0878 -18.0850 -18.0772 -18.0768 -18.0575 -18.0547 -18.0478 -18.0398
    -9.6688  -9.3790  -9.3670  -9.2647  -9.2300  -9.1488  -9.1098  -9.0794
    -9.0578  -8.9509  -8.9270  -8.9071  -8.8706  -8.8622  -8.8283  -8.8058
    -8.7825  -8.7522  -8.7302  -8.6797  -8.6240  -8.6150  -8.3750  -8.3586
    -5.3143  -5.2926  -5.2850  -5.2331  -5.2230  -5.2075  -5.2012  -5.1962
    -5.1872  -5.1802  -5.1765  -5.1705  -5.1353  -5.1258  -5.1206  -5.1036
    -5.0926  -5.0808  -5.0069  -5.0048  -5.0024  -4.9664  -4.9514  -4.9417
    -4.2199  -4.0107  -3.9901  -3.7810  -3.6260  -3.4253  -3.3687  -3.1434
    -0.6776  -0.6218  -0.5967  -0.5018  -0.4495  -0.3167  -0.2133  -0.1625
    -0.0522   0.0221   0.0600   0.2233   0.2492   0.2997   0.3908   0.4454
     0.5074   0.5531   0.5812   0.6341   0.6537   0.6749   0.7234   0.7606
     0.8296   0.8398   0.8747   0.9132   0.9723   0.9982   1.0727   1.1101
     1.1416   1.1687   1.2182   1.2560   1.2874   1.3184   1.3398   1.3516
     1.3735   1.4169   1.4410   1.4741   1.4962   1.5625   1.5865   1.5950
     1.6040   1.6389   1.6586   1.6730   1.7076   1.7198   1.7408   1.7813
     1.8039   1.8384   1.8692   1.9094   1.9385   1.9570   1.9896   2.0446
     2.1035   2.1319   2.1772   2.2068   2.2385   2.4495   2.5072   2.6660

          k =-0.3750 0.3750 0.1250 (132616 PWs)   bands (ev):

   -18.5320 -18.4397 -18.4183 -18.4159 -18.3891 -18.3849 -18.3732 -18.3684
   -18.3619 -18.3584 -18.3111 -18.3102 -18.2893 -18.2828 -18.2799 -18.2791
   -18.2711 -18.2710 -18.2619 -18.2609 -18.2600 -18.2555 -18.2552 -18.2378
   -18.2337 -18.2275 -18.2246 -18.2238 -18.2199 -18.2098 -18.2095 -18.2021
   -18.1991 -18.1980 -18.1949 -18.1904 -18.1889 -18.1724 -18.1065 -18.1021
   -18.0878 -18.0850 -18.0772 -18.0768 -18.0575 -18.0547 -18.0478 -18.0398
    -9.6687  -9.3839  -9.3625  -9.2597  -9.2347  -9.1470  -9.1124  -9.0792
    -9.0573  -8.9478  -8.9275  -8.9110  -8.8719  -8.8621  -8.8279  -8.8048
    -8.7764  -8.7522  -8.7351  -8.6799  -8.6230  -8.6154  -8.3753  -8.3583
    -5.3143  -5.2926  -5.2851  -5.2332  -5.2229  -5.2078  -5.2010  -5.1961
    -5.1870  -5.1803  -5.1766  -5.1706  -5.1352  -5.1257  -5.1206  -5.1037
    -5.0927  -5.0807  -5.0070  -5.0047  -5.0024  -4.9664  -4.9514  -4.9417
    -4.2139  -4.0592  -3.9356  -3.7866  -3.6352  -3.4515  -3.3284  -3.1550
    -0.6617  -0.6254  -0.6049  -0.5024  -0.4532  -0.2852  -0.2354  -0.1520
    -0.0456  -0.0080   0.0618   0.1791   0.1987   0.3564   0.4059   0.4391
     0.5203   0.5562   0.5889   0.6455   0.6671   0.6910   0.7036   0.7779
     0.8082   0.8467   0.8935   0.9280   0.9604   0.9965   1.0598   1.0904
     1.1389   1.1765   1.2170   1.2530   1.2815   1.3091   1.3435   1.3630
     1.3801   1.4186   1.4387   1.4751   1.4931   1.5602   1.5796   1.5951
     1.6125   1.6283   1.6459   1.6753   1.7181   1.7274   1.7528   1.7890
     1.8241   1.8303   1.8521   1.9112   1.9235   1.9540   1.9957   2.0279
     2.0883   2.1227   2.1742   2.2210   2.2585   2.4148   2.5570   2.6490

          k =-0.3750-0.3750 0.3750 (132612 PWs)   bands (ev):

   -18.5320 -18.4397 -18.4182 -18.4159 -18.3891 -18.3849 -18.3732 -18.3684
   -18.3619 -18.3584 -18.3111 -18.3102 -18.2893 -18.2828 -18.2799 -18.2791
   -18.2711 -18.2710 -18.2619 -18.2609 -18.2600 -18.2555 -18.2552 -18.2378
   -18.2337 -18.2275 -18.2246 -18.2238 -18.2199 -18.2098 -18.2095 -18.2021
   -18.1991 -18.1980 -18.1949 -18.1904 -18.1889 -18.1724 -18.1065 -18.1021
   -18.0878 -18.0850 -18.0772 -18.0768 -18.0575 -18.0547 -18.0478 -18.0398
    -9.6677  -9.3753  -9.3586  -9.2680  -9.2296  -9.1592  -9.1225  -9.0907
    -9.0567  -8.9525  -8.9255  -8.9076  -8.8697  -8.8410  -8.8319  -8.7971
    -8.7671  -8.7542  -8.7335  -8.6806  -8.6323  -8.6187  -8.3752  -8.3588
    -5.3143  -5.2925  -5.2851  -5.2332  -5.2232  -5.2082  -5.2006  -5.1967
    -5.1860  -5.1801  -5.1770  -5.1703  -5.1352  -5.1256  -5.1207  -5.1037
    -5.0922  -5.0809  -5.0066  -5.0046  -5.0024  -4.9666  -4.9515  -4.9412
    -4.1225  -3.9408  -3.8878  -3.7864  -3.6740  -3.5658  -3.4985  -3.3050
    -0.6012  -0.3864  -0.3341  -0.3136  -0.2480  -0.2334  -0.1570  -0.1274
    -0.0298   0.0513   0.1151   0.2129   0.2284   0.3083   0.3396   0.4121
     0.4886   0.5019   0.5248   0.5379   0.5892   0.6063   0.6503   0.7056
     0.8110   0.8492   0.9030   0.9449   0.9632   1.0056   1.0378   1.0576
     1.0962   1.1305   1.1474   1.1653   1.2041   1.2363   1.2892   1.3167
     1.3672   1.4264   1.4571   1.4781   1.5191   1.5304   1.5673   1.6212
     1.6330   1.6630   1.6720   1.7029   1.7171   1.7572   1.7704   1.8070
     1.8209   1.8405   1.8780   1.9051   1.9245   1.9389   1.9606   1.9892
     1.9955   2.0387   2.0887   2.1587   2.1767   2.2088   2.3074   2.4251

          k =-0.3750 0.3750-0.3750 (132612 PWs)   bands (ev):

   -18.5320 -18.4397 -18.4182 -18.4159 -18.3891 -18.3849 -18.3732 -18.3684
   -18.3619 -18.3584 -18.3111 -18.3102 -18.2893 -18.2828 -18.2799 -18.2791
   -18.2711 -18.2710 -18.2619 -18.2609 -18.2600 -18.2555 -18.2552 -18.2378
   -18.2337 -18.2275 -18.2246 -18.2238 -18.2199 -18.2098 -18.2095 -18.2021
   -18.1991 -18.1980 -18.1949 -18.1904 -18.1889 -18.1724 -18.1065 -18.1021
   -18.0878 -18.0850 -18.0772 -18.0768 -18.0575 -18.0547 -18.0478 -18.0398
    -9.6677  -9.3797  -9.3551  -9.2648  -9.2249  -9.1704  -9.1211  -9.0886
    -9.0579  -8.9490  -8.9299  -8.9066  -8.8673  -8.8414  -8.8294  -8.7961
    -8.7711  -8.7547  -8.7328  -8.6807  -8.6322  -8.6187  -8.3755  -8.3585
    -5.3142  -5.2925  -5.2851  -5.2332  -5.2232  -5.2082  -5.2006  -5.1967
    -5.1860  -5.1803  -5.1769  -5.1703  -5.1351  -5.1257  -5.1207  -5.1037
    -5.0923  -5.0809  -5.0066  -5.0047  -5.0024  -4.9666  -4.9515  -4.9412
    -4.1243  -3.9627  -3.8514  -3.7760  -3.6927  -3.5859  -3.4810  -3.3074
    -0.5820  -0.3878  -0.3654  -0.2976  -0.2333  -0.2158  -0.1676  -0.0927
    -0.0530  -0.0167   0.1153   0.1841   0.2315   0.3194   0.3649   0.4074
     0.4673   0.4959   0.5331   0.5621   0.5766   0.6410   0.6571   0.7205
     0.8296   0.8375   0.9090   0.9274   0.9754   0.9894   1.0236   1.0600
     1.0928   1.1262   1.1546   1.1877   1.2069   1.2215   1.2599   1.3463
     1.3726   1.4185   1.4321   1.4726   1.5102   1.5424   1.5727   1.6156
     1.6492   1.6730   1.6924   1.7070   1.7308   1.7486   1.7705   1.7897
     1.8280   1.8348   1.8748   1.8901   1.9194   1.9495   1.9619   1.9819
     2.0061   2.0318   2.1053   2.1392   2.1688   2.2096   2.3164   2.4148

          k = 0.3750-0.3750-0.3750 (132612 PWs)   bands (ev):

   -18.5320 -18.4397 -18.4182 -18.4159 -18.3891 -18.3849 -18.3732 -18.3684
   -18.3619 -18.3584 -18.3111 -18.3102 -18.2893 -18.2828 -18.2799 -18.2791
   -18.2711 -18.2710 -18.2619 -18.2609 -18.2600 -18.2555 -18.2552 -18.2378
   -18.2337 -18.2275 -18.2246 -18.2238 -18.2199 -18.2098 -18.2095 -18.2021
   -18.1991 -18.1980 -18.1949 -18.1904 -18.1889 -18.1724 -18.1065 -18.1021
   -18.0878 -18.0850 -18.0772 -18.0768 -18.0575 -18.0547 -18.0478 -18.0398
    -9.6676  -9.3779  -9.3574  -9.2637  -9.2295  -9.1650  -9.1208  -9.0886
    -9.0582  -8.9486  -8.9289  -8.9093  -8.8706  -8.8407  -8.8307  -8.7972
    -8.7576  -8.7564  -8.7394  -8.6813  -8.6323  -8.6182  -8.3756  -8.3585
    -5.3143  -5.2925  -5.2851  -5.2332  -5.2232  -5.2085  -5.2004  -5.1966
    -5.1859  -5.1803  -5.1770  -5.1704  -5.1351  -5.1256  -5.1207  -5.1038
    -5.0923  -5.0808  -5.0068  -5.0046  -5.0024  -4.9665  -4.9515  -4.9412
    -4.1164  -3.9730  -3.8594  -3.7532  -3.7231  -3.5602  -3.4843  -3.3114
    -0.5824  -0.3839  -0.3442  -0.3105  -0.2773  -0.2439  -0.1522  -0.0889
    -0.0248   0.0300   0.1090   0.1743   0.2299   0.2923   0.3663   0.4273
     0.4461   0.4982   0.5371   0.5688   0.5948   0.6366   0.6606   0.7083
     0.7912   0.8681   0.9077   0.9434   0.9614   0.9903   1.0401   1.0711
     1.0831   1.1197   1.1584   1.1729   1.2010   1.2226   1.2717   1.3425
     1.3695   1.4026   1.4543   1.4872   1.5085   1.5173   1.5892   1.6165
     1.6407   1.6607   1.6813   1.7064   1.7350   1.7421   1.7871   1.7911
     1.8169   1.8443   1.8585   1.8815   1.9226   1.9334   1.9772   1.9966
     2.0159   2.0427   2.0907   2.1400   2.1611   2.2092   2.3207   2.4258

     highest occupied level (ev):     3.1907

!    total energy              =   -2256.30263096 Ry
     estimated scf accuracy    <          3.9E-11 Ry

     The total energy is the sum of the following terms:
     one-electron contribution =    -988.94696544 Ry
     hartree contribution      =     622.51187843 Ry
     xc contribution           =    -647.50866040 Ry
     ewald contribution        =   -1242.35888355 Ry

     convergence has been achieved in  16 iterations

     Forces acting on atoms (cartesian axes, Ry/au):

     atom    1 type  1   force =     0.00201418   -0.00106801   -0.00387795
     atom    2 type  2   force =    -0.01618627    0.01109489    0.00258012
     atom    3 type  3   force =    -0.00079472    0.00662392    0.00083263
     atom    4 type  3   force =    -0.00056169    0.00156807    0.01019402
     atom    5 type  3   force =     0.01003272   -0.00518231    0.00261539
     atom    6 type  1   force =    -0.00659371    0.00223246    0.00110874
     atom    7 type  2   force =     0.01699619   -0.00860853   -0.00196219
     atom    8 type  3   force =     0.01419419    0.00630953   -0.00628491
     atom    9 type  3   force =     0.00492551    0.00173005   -0.00607942
     atom   10 type  3   force =    -0.00343769    0.00770058    0.00315741
     atom   11 type  1   force =     0.00072454    0.00157097   -0.00173519
     atom   12 type  2   force =    -0.02756184   -0.00433010   -0.00795147
     atom   13 type  3   force =    -0.00675921   -0.00448493    0.00336366
     atom   14 type  3   force =     0.00808892   -0.00429130   -0.01046855
     atom   15 type  3   force =     0.00003735   -0.01339655   -0.00133650
     atom   16 type  1   force =    -0.00088626   -0.00457116    0.00590630
     atom   17 type  2   force =     0.00169176    0.00459059   -0.00012120
     atom   18 type  3   force =     0.00330246    0.00708736   -0.00185280
     atom   19 type  3   force =     0.00289838    0.00199951    0.00809697
     atom   20 type  3   force =    -0.00162102   -0.00859860   -0.00014628
     atom   21 type  1   force =     0.00073711    0.00147255   -0.00428795
     atom   22 type  2   force =     0.01569434   -0.00258605    0.01000229
     atom   23 type  3   force =    -0.00142608    0.00277806    0.00374683
     atom   24 type  3   force =    -0.00214685    0.00613084   -0.00957807
     atom   25 type  3   force =    -0.00054905    0.01050067   -0.00349985
     atom   26 type  1   force =     0.00189265   -0.00432621    0.01115994
     atom   27 type  2   force =    -0.00128953   -0.04761163   -0.00325578
     atom   28 type  3   force =    -0.02334385    0.00484471    0.00049798
     atom   29 type  3   force =     0.00228750   -0.00209291   -0.00691450
     atom   30 type  3   force =    -0.00086731    0.03968721   -0.00271692
     atom   31 type  1   force =    -0.00168117    0.00317446   -0.00399459
     atom   32 type  2   force =     0.01925540    0.00421884    0.02347111
     atom   33 type  3   force =    -0.00078866    0.00320617    0.00416052
     atom   34 type  3   force =    -0.00056992   -0.00013547    0.00851785
     atom   35 type  3   force =    -0.00024362   -0.01274560    0.00008559
     atom   36 type  1   force =     0.00294057    0.00145547    0.00539365
     atom   37 type  2   force =     0.00566638    0.00793230   -0.01160084
     atom   38 type  3   force =    -0.00258362    0.00315203   -0.00551827
     atom   39 type  3   force =    -0.00430361   -0.00278113   -0.01496546
     atom   40 type  3   force =    -0.00918449   -0.01425075    0.00325772

     Total force =     0.102599     Total SCF correction =     0.000026


     Computing stress (Cartesian axis) and pressure

          total   stress  (Ry/bohr**3)                   (kbar)     P=       -7.10
  -0.00005635  -0.00000810  -0.00000117           -8.29       -1.19       -0.17
  -0.00000810  -0.00004207  -0.00000312           -1.19       -6.19       -0.46
  -0.00000117  -0.00000312  -0.00004642           -0.17       -0.46       -6.83

 
     init_run     :     19.96s CPU     17.04s WALL (       1 calls)
     electrons    :    210.71s CPU    222.65s WALL (       1 calls)
     forces       :      8.88s CPU      3.97s WALL (       1 calls)
     stress       :     31.37s CPU     31.47s WALL (       1 calls)

     Called by init_run:
     wfcinit      :     11.97s CPU     13.95s WALL (       1 calls)
                                       13.95s GPU  (       1 calls)
     potinit      :      4.46s CPU      1.40s WALL (       1 calls)
     hinit0       :      2.96s CPU      1.02s WALL (       1 calls)

     Called by electrons:
     c_bands      :    124.85s CPU    177.36s WALL (      17 calls)
     sum_band     :     23.05s CPU     22.37s WALL (      17 calls)
                                       22.37s GPU  (      17 calls)
     v_of_rho     :     58.00s CPU     17.70s WALL (      17 calls)
     mix_rho      :      6.76s CPU      5.37s WALL (      17 calls)

     Called by c_bands:
     init_us_2    :      2.62s CPU      3.39s WALL (     296 calls)
                                        3.38s GPU  (     296 calls)
     cegterg      :     84.55s CPU    133.96s WALL (     136 calls)

     Called by *egterg:
     cdiaghg      :     14.60s CPU     27.05s WALL (     676 calls)
                                       27.01s GPU  (     676 calls)
     h_psi        :     57.09s CPU     76.92s WALL (     692 calls)
                                       76.45s GPU  (     692 calls)
     g_psi        :      0.00s CPU      0.37s WALL (     548 calls)
                                        0.37s GPU  (     548 calls)

     Called by h_psi:
     h_psi:calbec :      0.28s CPU     10.37s WALL (     692 calls)
                                       10.36s GPU  (     692 calls)
     vloc_psi     :     41.76s CPU     56.12s WALL (     692 calls)
                                       55.17s GPU  (     692 calls)
     add_vuspsi   :      0.35s CPU     10.34s WALL (     692 calls)
                                       10.33s GPU  (     692 calls)

     General routines
     calbec       :      0.28s CPU      0.42s WALL (     732 calls)
     fft          :     27.05s CPU      6.91s WALL (     195 calls)
                                        0.00s GPU  (       6 calls)
     ffts         :      2.72s CPU      0.72s WALL (      17 calls)
     fftw         :      0.64s CPU     65.21s WALL (   10874 calls)
                                       48.69s GPU  (   10874 calls)
 
     Parallel routines
 
     PWSCF        :   4m31.56s CPU   4m35.95s WALL

 
   This run was terminated on:  19:24:44  22Apr2021            

=------------------------------------------------------------------------------=
   JOB DONE.
=------------------------------------------------------------------------------=
