
     Program PWSCF v.6.7MaX starts on 22Apr2021 at 21:11:56 

     This program is part of the open-source Quantum ESPRESSO suite
     for quantum simulation of materials; please cite
         "P. Giannozzi et al., J. Phys.:Condens. Matter 21 395502 (2009);
         "P. Giannozzi et al., J. Phys.:Condens. Matter 29 465901 (2017);
         "P. Giannozzi et al., J. Chem. Phys. 152 154105 (2020);
          URL http://www.quantum-espresso.org", 
     in publications or presentations arising from this work. More details at
     http://www.quantum-espresso.org/quote

     Parallel version (MPI & OpenMP), running on      16 processor cores
     Number of MPI processes:                 4
     Threads/MPI process:                     4

     MPI processes distributed on     1 nodes
     K-points division:     npool     =       4
     Reading input from ESP_68.pwi
Warning: card &CELL ignored
Warning: card / ignored

     Current dimensions of program PWSCF are:
     Max number of different atomic species (ntypx) = 10
     Max number of k-points (npk) =  40000
     Max angular momentum in pseudopotentials (lmaxx) =  3
     Message from routine read_pp_mesh:
     mesh size missing, using the one in header
     Message from routine read_pp_mesh:
     mesh size missing, using the one in header
     Message from routine read_pp_mesh:
     mesh size missing, using the one in header

     Subspace diagonalization in iterative solution of the eigenvalue problem:
     a serial algorithm will be used

 
     G-vector sticks info
     --------------------
     sticks:   dense  smooth     PW     G-vecs:    dense   smooth      PW
     Sum       12589   12589   3289              1061107  1061107  140905
 
     Using Slab Decomposition
 


     bravais-lattice index     =            0
     lattice parameter (alat)  =      23.7585  a.u.
     unit-cell volume          =   13410.8736 (a.u.)^3
     number of atoms/cell      =           40
     number of atomic types    =            3
     number of electrons       =       352.00
     number of Kohn-Sham states=          176
     kinetic-energy cutoff     =      70.0000  Ry
     charge density cutoff     =     280.0000  Ry
     scf convergence threshold =      1.0E-10
     mixing beta               =       0.7000
     number of iterations used =            8  plain     mixing
     Exchange-correlation= PBESOL
                           (   1   4  10   8   0   0   0)

     GPU acceleration is ACTIVE.


     celldm(1)=  23.758500  celldm(2)=   0.000000  celldm(3)=   0.000000
     celldm(4)=   0.000000  celldm(5)=   0.000000  celldm(6)=   0.000000

     crystal axes: (cart. coord. in units of alat)
               a(1) = (   1.000000   0.000000   0.000000 )  
               a(2) = (   0.000000   1.000000   0.000000 )  
               a(3) = (   0.000000   0.000000   1.000000 )  

     reciprocal axes: (cart. coord. in units 2 pi/alat)
               b(1) = (  1.000000  0.000000  0.000000 )  
               b(2) = (  0.000000  1.000000  0.000000 )  
               b(3) = (  0.000000  0.000000  1.000000 )  


     PseudoPot. # 1 for Cs read from file:
     /m100/home/userexternal/lmonacel/espresso/pseudo/Cs-nc-pbesol.upf
     MD5 check sum: 9d2f2206a14dc5b3b3f3fbfae186bed4
     Pseudo is Norm-conserving + core correction, Zval =  9.0
     Generated using ONCVPSP code by D. R. Hamann
     Using radial grid of 2384 points,  8 beta functions with: 
                l(1) =   0
                l(2) =   0
                l(3) =   1
                l(4) =   1
                l(5) =   2
                l(6) =   2
                l(7) =   3
                l(8) =   3

     PseudoPot. # 2 for Sn read from file:
     /m100/home/userexternal/lmonacel/espresso/pseudo/Sn-nc-pbesol.upf
     MD5 check sum: c2995d571af40102bfea7461443d92cf
     Pseudo is Norm-conserving + core correction, Zval = 14.0
     Generated using ONCVPSP code by D. R. Hamann
     Using radial grid of 1628 points,  6 beta functions with: 
                l(1) =   0
                l(2) =   0
                l(3) =   1
                l(4) =   1
                l(5) =   2
                l(6) =   2

     PseudoPot. # 3 for I  read from file:
     /m100/home/userexternal/lmonacel/espresso/pseudo/I-nc-pbesol.upf
     MD5 check sum: 80ed5ceb2eb9c553cfb6760a299d9c5b
     Pseudo is Norm-conserving + core correction, Zval =  7.0
     Generated using ONCVPSP code by D. R. Hamann
     Using radial grid of 1182 points,  6 beta functions with: 
                l(1) =   0
                l(2) =   0
                l(3) =   1
                l(4) =   1
                l(5) =   2
                l(6) =   2

     atomic species   valence    mass     pseudopotential
        Cs             9.00   132.90545     Cs( 1.00)
        Sn            14.00   118.71000     Sn( 1.00)
        I              7.00   126.90447     I ( 1.00)

     No symmetry found



   Cartesian axes

     site n.     atom                  positions (alat units)
         1           Cs  tau(   1) = (   0.2918263   0.2290594   0.2698208  )
         2           Sn  tau(   2) = (  -0.0059603   0.0312760   0.0023765  )
         3           I   tau(   3) = (   0.2473902   0.0284385  -0.0362977  )
         4           I   tau(   4) = (   0.0222250  -0.0009718   0.2584143  )
         5           I   tau(   5) = (   0.0097027   0.2547068   0.0248858  )
         6           Cs  tau(   6) = (   0.2035155   0.2358089   0.7360457  )
         7           Sn  tau(   7) = (   0.0019178   0.0093955   0.4937758  )
         8           I   tau(   8) = (   0.2463411  -0.0054920   0.4975995  )
         9           I   tau(   9) = (  -0.0302890  -0.0004418   0.7447714  )
        10           I   tau(  10) = (   0.0243809   0.2478834   0.4806081  )
        11           Cs  tau(  11) = (   0.2941838   0.7684787   0.2623355  )
        12           Sn  tau(  12) = (  -0.0206577   0.5163849   0.0091378  )
        13           I   tau(  13) = (   0.2597285   0.4856155   0.0118953  )
        14           I   tau(  14) = (  -0.0347394   0.4924038   0.2433857  )
        15           I   tau(  15) = (  -0.0000367   0.7596089   0.0262836  )
        16           Cs  tau(  16) = (   0.2309920   0.7168171   0.7368748  )
        17           Sn  tau(  17) = (   0.0096491   0.5094637   0.5014289  )
        18           I   tau(  18) = (   0.2592613   0.5031493   0.4573426  )
        19           I   tau(  19) = (  -0.0165329   0.4711572   0.7456595  )
        20           I   tau(  20) = (   0.0176946   0.7395170   0.5480876  )
        21           Cs  tau(  21) = (   0.7610294   0.2757123   0.2838863  )
        22           Sn  tau(  22) = (   0.4824880  -0.0041606   0.0042886  )
        23           I   tau(  23) = (   0.7447953   0.0223963   0.0259081  )
        24           I   tau(  24) = (   0.4898804  -0.0277598   0.2405203  )
        25           I   tau(  25) = (   0.5245831   0.2421719  -0.0080670  )
        26           Cs  tau(  26) = (   0.7390682   0.2653754   0.7723922  )
        27           Sn  tau(  27) = (   0.4812148  -0.0058103   0.4989295  )
        28           I   tau(  28) = (   0.7382398  -0.0277071   0.4705964  )
        29           I   tau(  29) = (   0.5165939  -0.0105695   0.7387453  )
        30           I   tau(  30) = (   0.4885382   0.2481855   0.4980875  )
        31           Cs  tau(  31) = (   0.7412493   0.7575111   0.2466067  )
        32           Sn  tau(  32) = (   0.4875233   0.4856078  -0.0191132  )
        33           I   tau(  33) = (   0.7529284   0.5080423  -0.0288073  )
        34           I   tau(  34) = (   0.5125464   0.4750147   0.2397765  )
        35           I   tau(  35) = (   0.4976369   0.7431334   0.0066849  )
        36           Cs  tau(  36) = (   0.7678600   0.7845665   0.7555632  )
        37           Sn  tau(  37) = (   0.5308973   0.4942468   0.4875452  )
        38           I   tau(  38) = (   0.7450630   0.5274794   0.5295888  )
        39           I   tau(  39) = (   0.4728642   0.5124407   0.7411326  )
        40           I   tau(  40) = (   0.5108756   0.7426387   0.4969030  )

     number of k points=    32
                       cart. coord. in units 2pi/alat
        k(    1) = (   0.1250000   0.1250000   0.1250000), wk =   0.0625000
        k(    2) = (   0.1250000   0.1250000   0.3750000), wk =   0.0625000
        k(    3) = (   0.1250000   0.3750000   0.3750000), wk =   0.0625000
        k(    4) = (   0.3750000   0.3750000   0.3750000), wk =   0.0625000
        k(    5) = (  -0.1250000  -0.1250000   0.1250000), wk =   0.0625000
        k(    6) = (  -0.1250000   0.1250000  -0.1250000), wk =   0.0625000
        k(    7) = (   0.1250000  -0.1250000  -0.1250000), wk =   0.0625000
        k(    8) = (  -0.1250000  -0.1250000   0.3750000), wk =   0.0625000
        k(    9) = (  -0.1250000   0.1250000  -0.3750000), wk =   0.0625000
        k(   10) = (   0.1250000  -0.1250000  -0.3750000), wk =   0.0625000
        k(   11) = (   0.3750000  -0.1250000   0.1250000), wk =   0.0625000
        k(   12) = (  -0.3750000  -0.1250000  -0.1250000), wk =   0.0625000
        k(   13) = (   0.3750000   0.1250000  -0.1250000), wk =   0.0625000
        k(   14) = (  -0.3750000   0.1250000   0.1250000), wk =   0.0625000
        k(   15) = (  -0.1250000   0.3750000   0.1250000), wk =   0.0625000
        k(   16) = (  -0.1250000  -0.3750000  -0.1250000), wk =   0.0625000
        k(   17) = (   0.1250000   0.3750000  -0.1250000), wk =   0.0625000
        k(   18) = (   0.1250000  -0.3750000   0.1250000), wk =   0.0625000
        k(   19) = (  -0.1250000  -0.3750000   0.3750000), wk =   0.0625000
        k(   20) = (  -0.1250000   0.3750000  -0.3750000), wk =   0.0625000
        k(   21) = (   0.1250000  -0.3750000  -0.3750000), wk =   0.0625000
        k(   22) = (   0.3750000   0.1250000  -0.3750000), wk =   0.0625000
        k(   23) = (  -0.3750000  -0.1250000  -0.3750000), wk =   0.0625000
        k(   24) = (   0.3750000  -0.1250000   0.3750000), wk =   0.0625000
        k(   25) = (  -0.3750000   0.1250000   0.3750000), wk =   0.0625000
        k(   26) = (   0.3750000  -0.3750000   0.1250000), wk =   0.0625000
        k(   27) = (  -0.3750000  -0.3750000  -0.1250000), wk =   0.0625000
        k(   28) = (   0.3750000   0.3750000  -0.1250000), wk =   0.0625000
        k(   29) = (  -0.3750000   0.3750000   0.1250000), wk =   0.0625000
        k(   30) = (  -0.3750000  -0.3750000   0.3750000), wk =   0.0625000
        k(   31) = (  -0.3750000   0.3750000  -0.3750000), wk =   0.0625000
        k(   32) = (   0.3750000  -0.3750000  -0.3750000), wk =   0.0625000

     Dense  grid:  1061107 G-vectors     FFT dimensions: ( 128, 128, 128)

     Estimated max dynamical RAM per process >       6.82 GB

     Estimated total dynamical RAM >      27.27 GB

     Initial potential from superposition of free atoms

     starting charge  351.69472, renormalised to  352.00000
     Starting wfcs are  208 randomized atomic wfcs

     total cpu time spent up to now is       17.7 secs

     Self-consistent Calculation

     iteration #  1     ecut=    70.00 Ry     beta= 0.70
     Davidson diagonalization with overlap
     ethr =  1.00E-02,  avg # of iterations =  2.0

     Threshold (ethr) on eigenvalues was too large:
     Diagonalizing with lowered threshold

     Davidson diagonalization with overlap
     ethr =  2.15E-04,  avg # of iterations =  4.0

     total cpu time spent up to now is       38.6 secs

     total energy              =   -2256.01809277 Ry
     estimated scf accuracy    <       0.65093053 Ry

     iteration #  2     ecut=    70.00 Ry     beta= 0.70
     Davidson diagonalization with overlap
     ethr =  1.85E-04,  avg # of iterations =  3.3

     total cpu time spent up to now is       51.4 secs

     total energy              =   -2256.21414395 Ry
     estimated scf accuracy    <       0.31909627 Ry

     iteration #  3     ecut=    70.00 Ry     beta= 0.70
     Davidson diagonalization with overlap
     ethr =  9.07E-05,  avg # of iterations =  2.9

     total cpu time spent up to now is       63.3 secs

     total energy              =   -2256.27692199 Ry
     estimated scf accuracy    <       0.02198572 Ry

     iteration #  4     ecut=    70.00 Ry     beta= 0.70
     Davidson diagonalization with overlap
     ethr =  6.25E-06,  avg # of iterations =  4.2

     total cpu time spent up to now is       76.7 secs

     total energy              =   -2256.28456418 Ry
     estimated scf accuracy    <       0.00520712 Ry

     iteration #  5     ecut=    70.00 Ry     beta= 0.70
     Davidson diagonalization with overlap
     ethr =  1.48E-06,  avg # of iterations =  3.1

     total cpu time spent up to now is       88.7 secs

     total energy              =   -2256.28557025 Ry
     estimated scf accuracy    <       0.00128017 Ry

     iteration #  6     ecut=    70.00 Ry     beta= 0.70
     Davidson diagonalization with overlap
     ethr =  3.64E-07,  avg # of iterations =  3.2

     total cpu time spent up to now is      100.9 secs

     total energy              =   -2256.28581728 Ry
     estimated scf accuracy    <       0.00013570 Ry

     iteration #  7     ecut=    70.00 Ry     beta= 0.70
     Davidson diagonalization with overlap
     ethr =  3.86E-08,  avg # of iterations =  5.3

     total cpu time spent up to now is      115.4 secs

     total energy              =   -2256.28587151 Ry
     estimated scf accuracy    <       0.00002050 Ry

     iteration #  8     ecut=    70.00 Ry     beta= 0.70
     Davidson diagonalization with overlap
     ethr =  5.82E-09,  avg # of iterations =  4.0

     total cpu time spent up to now is      129.2 secs

     total energy              =   -2256.28587968 Ry
     estimated scf accuracy    <       0.00000358 Ry

     iteration #  9     ecut=    70.00 Ry     beta= 0.70
     Davidson diagonalization with overlap
     ethr =  1.02E-09,  avg # of iterations =  4.8

     total cpu time spent up to now is      143.4 secs

     total energy              =   -2256.28588105 Ry
     estimated scf accuracy    <       0.00000062 Ry

     iteration # 10     ecut=    70.00 Ry     beta= 0.70
     Davidson diagonalization with overlap
     ethr =  1.77E-10,  avg # of iterations =  4.5

     total cpu time spent up to now is      158.1 secs

     total energy              =   -2256.28588128 Ry
     estimated scf accuracy    <       0.00000014 Ry

     iteration # 11     ecut=    70.00 Ry     beta= 0.70
     Davidson diagonalization with overlap
     ethr =  3.94E-11,  avg # of iterations =  4.9

     total cpu time spent up to now is      173.0 secs

     total energy              =   -2256.28588134 Ry
     estimated scf accuracy    <       0.00000002 Ry

     iteration # 12     ecut=    70.00 Ry     beta= 0.70
     Davidson diagonalization with overlap
     ethr =  4.79E-12,  avg # of iterations =  6.4

     total cpu time spent up to now is      190.7 secs

     total energy              =   -2256.28588135 Ry
     estimated scf accuracy    <       0.00000001 Ry

     iteration # 13     ecut=    70.00 Ry     beta= 0.70
     Davidson diagonalization with overlap
     ethr =  3.13E-12,  avg # of iterations =  3.0

     total cpu time spent up to now is      202.9 secs

     total energy              =   -2256.28588135 Ry
     estimated scf accuracy    <          1.1E-09 Ry

     iteration # 14     ecut=    70.00 Ry     beta= 0.70
     Davidson diagonalization with overlap
     ethr =  3.24E-13,  avg # of iterations =  5.1

     total cpu time spent up to now is      217.6 secs

     total energy              =   -2256.28588136 Ry
     estimated scf accuracy    <          1.2E-10 Ry

     iteration # 15     ecut=    70.00 Ry     beta= 0.70
     Davidson diagonalization with overlap
     ethr =  1.00E-13,  avg # of iterations =  3.9

     total cpu time spent up to now is      230.4 secs

     End of self-consistent calculation

          k = 0.1250 0.1250 0.1250 (132670 PWs)   bands (ev):

   -18.4388 -18.4358 -18.4284 -18.4063 -18.3304 -18.3238 -18.3214 -18.3203
   -18.3198 -18.3125 -18.3118 -18.3107 -18.3025 -18.3015 -18.2930 -18.2846
   -18.2727 -18.2586 -18.2497 -18.2369 -18.2303 -18.2275 -18.2264 -18.2232
   -18.2125 -18.2113 -18.2096 -18.2025 -18.1986 -18.1938 -18.1936 -18.1891
   -18.1852 -18.1804 -18.1754 -18.1687 -18.1607 -18.1602 -18.1527 -18.1520
   -18.1395 -18.1355 -18.1280 -18.0334 -18.0305 -18.0197 -18.0119 -18.0049
    -9.5679  -9.5032  -9.3539  -9.3101  -9.1928  -9.1621  -9.1361  -9.0543
    -8.9966  -8.9753  -8.9503  -8.9203  -8.9070  -8.8669  -8.8231  -8.8057
    -8.7594  -8.7120  -8.6588  -8.6410  -8.5845  -8.5446  -8.5252  -8.5078
    -5.2297  -5.2226  -5.2133  -5.2116  -5.2110  -5.2051  -5.2021  -5.1925
    -5.1920  -5.1868  -5.1778  -5.1679  -5.1177  -5.1034  -5.0950  -5.0876
    -5.0806  -5.0762  -5.0647  -5.0562  -5.0473  -5.0436  -5.0353  -5.0232
    -4.4458  -3.9569  -3.9245  -3.8723  -3.4069  -3.3761  -3.3184  -2.7764
    -0.7641  -0.7399  -0.7064  -0.6299  -0.5982  -0.5231  -0.4563  -0.4274
    -0.3724  -0.3062  -0.2707  -0.1672   0.3765   0.4592   0.4861   0.5306
     0.5976   0.6283   0.6515   0.7339   0.7836   0.8547   0.8763   0.9101
     0.9510   0.9963   1.0365   1.0758   1.1009   1.1477   1.1659   1.1734
     1.2110   1.2372   1.2538   1.2658   1.3098   1.3280   1.3454   1.3751
     1.3975   1.4481   1.4608   1.4815   1.4900   1.5193   1.5400   1.5580
     1.5718   1.6103   1.6237   1.6458   1.6674   1.6902   1.7300   1.7452
     1.7650   1.7973   1.8177   1.9786   2.0081   2.0653   2.0809   2.1089
     2.1525   2.1915   2.2447   2.2916   2.6450   2.7460   2.7948   3.1945

          k = 0.1250 0.1250 0.3750 (132608 PWs)   bands (ev):

   -18.4388 -18.4358 -18.4284 -18.4063 -18.3304 -18.3238 -18.3214 -18.3203
   -18.3198 -18.3125 -18.3118 -18.3107 -18.3025 -18.3015 -18.2930 -18.2846
   -18.2727 -18.2586 -18.2497 -18.2369 -18.2303 -18.2275 -18.2264 -18.2232
   -18.2125 -18.2113 -18.2096 -18.2025 -18.1986 -18.1938 -18.1936 -18.1891
   -18.1852 -18.1804 -18.1754 -18.1687 -18.1607 -18.1602 -18.1527 -18.1520
   -18.1395 -18.1355 -18.1280 -18.0334 -18.0305 -18.0197 -18.0119 -18.0049
    -9.5631  -9.5018  -9.3591  -9.3034  -9.2055  -9.1676  -9.1367  -9.0539
    -9.0019  -8.9716  -8.9594  -8.9138  -8.8966  -8.8689  -8.8245  -8.8100
    -8.7537  -8.6875  -8.6645  -8.6359  -8.5943  -8.5426  -8.5329  -8.5101
    -5.2288  -5.2218  -5.2151  -5.2110  -5.2100  -5.2058  -5.2025  -5.1925
    -5.1918  -5.1867  -5.1778  -5.1678  -5.1179  -5.1034  -5.0950  -5.0877
    -5.0806  -5.0763  -5.0651  -5.0560  -5.0471  -5.0441  -5.0355  -5.0233
    -4.3336  -4.0805  -3.8453  -3.7589  -3.5552  -3.5149  -3.2323  -2.9723
    -0.7588  -0.7076  -0.7012  -0.6038  -0.5100  -0.4547  -0.3866  -0.3667
    -0.0880  -0.0536   0.0118   0.1234   0.3469   0.4254   0.4666   0.4722
     0.5306   0.5871   0.6241   0.6553   0.6739   0.7133   0.7620   0.7743
     0.8239   0.8928   0.9366   1.0189   1.0540   1.0967   1.1349   1.1610
     1.1830   1.2073   1.2395   1.2612   1.3064   1.3211   1.3553   1.3964
     1.4283   1.4349   1.4612   1.4805   1.4971   1.5168   1.5533   1.5639
     1.5889   1.6183   1.6553   1.6709   1.7075   1.7121   1.7610   1.7677
     1.7936   1.8083   1.8572   1.8932   1.9162   1.9720   2.0131   2.0569
     2.1020   2.1551   2.2258   2.3047   2.4311   2.5137   2.7522   2.9274

          k = 0.1250 0.3750 0.3750 (132616 PWs)   bands (ev):

   -18.4388 -18.4358 -18.4284 -18.4063 -18.3304 -18.3238 -18.3214 -18.3203
   -18.3198 -18.3125 -18.3118 -18.3107 -18.3025 -18.3015 -18.2930 -18.2846
   -18.2727 -18.2586 -18.2497 -18.2369 -18.2303 -18.2275 -18.2264 -18.2232
   -18.2125 -18.2113 -18.2096 -18.2025 -18.1986 -18.1938 -18.1936 -18.1891
   -18.1852 -18.1804 -18.1754 -18.1687 -18.1607 -18.1602 -18.1527 -18.1520
   -18.1395 -18.1355 -18.1280 -18.0334 -18.0305 -18.0197 -18.0119 -18.0049
    -9.5478  -9.5176  -9.3506  -9.3006  -9.2083  -9.1810  -9.1472  -9.0522
    -9.0024  -8.9704  -8.9564  -8.9102  -8.8923  -8.8839  -8.8249  -8.8015
    -8.7368  -8.6841  -8.6682  -8.6323  -8.5875  -8.5560  -8.5328  -8.5144
    -5.2287  -5.2217  -5.2152  -5.2107  -5.2100  -5.2057  -5.2025  -5.1921
    -5.1915  -5.1870  -5.1785  -5.1681  -5.1174  -5.1022  -5.0961  -5.0873
    -5.0815  -5.0758  -5.0656  -5.0566  -5.0462  -5.0438  -5.0356  -5.0233
    -4.2165  -3.9914  -3.9592  -3.7159  -3.6409  -3.4430  -3.3869  -3.1571
    -0.7066  -0.6646  -0.5699  -0.5109  -0.3788  -0.2422  -0.2059  -0.1295
    -0.0468   0.0053   0.1109   0.1889   0.2585   0.3940   0.4207   0.4672
     0.4903   0.5118   0.5591   0.5860   0.6240   0.6668   0.6856   0.7397
     0.7996   0.8564   0.8794   0.9601   1.0020   1.0193   1.0752   1.1111
     1.1313   1.1624   1.1782   1.2349   1.2716   1.2928   1.3150   1.3708
     1.3806   1.4313   1.4691   1.4941   1.5135   1.5423   1.5623   1.5818
     1.6110   1.6520   1.6676   1.7020   1.7330   1.7638   1.7910   1.8110
     1.8293   1.8543   1.8668   1.8941   1.9130   1.9251   1.9838   2.0125
     2.0573   2.0743   2.1138   2.1986   2.2991   2.4320   2.5169   2.6306

          k = 0.3750 0.3750 0.3750 (132612 PWs)   bands (ev):

   -18.4388 -18.4358 -18.4284 -18.4063 -18.3304 -18.3238 -18.3214 -18.3203
   -18.3198 -18.3125 -18.3118 -18.3107 -18.3025 -18.3015 -18.2930 -18.2846
   -18.2728 -18.2586 -18.2497 -18.2369 -18.2303 -18.2275 -18.2264 -18.2232
   -18.2125 -18.2112 -18.2097 -18.2025 -18.1986 -18.1938 -18.1936 -18.1891
   -18.1852 -18.1804 -18.1754 -18.1687 -18.1607 -18.1602 -18.1527 -18.1520
   -18.1395 -18.1355 -18.1280 -18.0334 -18.0305 -18.0197 -18.0119 -18.0049
    -9.5395  -9.5221  -9.3409  -9.3080  -9.2152  -9.1819  -9.1533  -9.0566
    -9.0063  -8.9825  -8.9451  -8.9171  -8.8963  -8.8650  -8.8120  -8.7993
    -8.7359  -8.6831  -8.6655  -8.6363  -8.5870  -8.5604  -8.5320  -8.5179
    -5.2288  -5.2213  -5.2170  -5.2103  -5.2091  -5.2048  -5.2035  -5.1922
    -5.1920  -5.1863  -5.1787  -5.1676  -5.1173  -5.1021  -5.0965  -5.0882
    -5.0806  -5.0747  -5.0659  -5.0570  -5.0467  -5.0433  -5.0352  -5.0230
    -4.1123  -3.9413  -3.8559  -3.7606  -3.6256  -3.5858  -3.5052  -3.3242
    -0.5148  -0.4758  -0.4007  -0.3038  -0.2522  -0.1856  -0.1412  -0.0590
    -0.0232   0.0011   0.1021   0.2247   0.2831   0.3301   0.3642   0.4096
     0.4559   0.4861   0.5111   0.5461   0.5819   0.6137   0.6484   0.6957
     0.7839   0.8480   0.8722   0.9313   0.9803   0.9857   1.0373   1.0538
     1.0800   1.1134   1.1607   1.1921   1.2325   1.2578   1.2855   1.3174
     1.3433   1.4100   1.4608   1.5012   1.5351   1.5468   1.5957   1.6221
     1.6510   1.6631   1.6983   1.7343   1.7526   1.7746   1.8079   1.8183
     1.8409   1.8580   1.8734   1.8938   1.9176   1.9439   1.9784   1.9954
     2.0129   2.0464   2.0700   2.0943   2.1672   2.2165   2.2576   2.3510

          k =-0.1250-0.1250 0.1250 (132670 PWs)   bands (ev):

   -18.4388 -18.4358 -18.4284 -18.4063 -18.3304 -18.3238 -18.3214 -18.3203
   -18.3198 -18.3125 -18.3118 -18.3107 -18.3025 -18.3015 -18.2930 -18.2846
   -18.2727 -18.2586 -18.2497 -18.2369 -18.2303 -18.2275 -18.2264 -18.2232
   -18.2125 -18.2113 -18.2096 -18.2025 -18.1986 -18.1938 -18.1936 -18.1891
   -18.1852 -18.1804 -18.1754 -18.1687 -18.1607 -18.1602 -18.1527 -18.1520
   -18.1395 -18.1355 -18.1280 -18.0334 -18.0305 -18.0197 -18.0119 -18.0049
    -9.5677  -9.5033  -9.3563  -9.3074  -9.1913  -9.1621  -9.1390  -9.0485
    -9.0075  -8.9710  -8.9511  -8.9220  -8.9034  -8.8588  -8.8256  -8.8087
    -8.7678  -8.7057  -8.6569  -8.6419  -8.5854  -8.5449  -8.5248  -8.5080
    -5.2298  -5.2219  -5.2137  -5.2121  -5.2107  -5.2052  -5.2021  -5.1924
    -5.1920  -5.1867  -5.1779  -5.1679  -5.1177  -5.1034  -5.0950  -5.0875
    -5.0805  -5.0764  -5.0647  -5.0561  -5.0476  -5.0434  -5.0356  -5.0230
    -4.4463  -3.9550  -3.9294  -3.8685  -3.4158  -3.3664  -3.3172  -2.7802
    -0.7564  -0.7330  -0.6729  -0.6441  -0.5744  -0.5586  -0.4860  -0.4267
    -0.3545  -0.3332  -0.2647  -0.1669   0.3775   0.4587   0.4844   0.5363
     0.5867   0.6319   0.6568   0.7276   0.7933   0.8658   0.8840   0.9293
     0.9724   1.0004   1.0272   1.0612   1.0873   1.1207   1.1579   1.1874
     1.2050   1.2201   1.2544   1.2787   1.3015   1.3277   1.3497   1.3854
     1.3991   1.4143   1.4503   1.4873   1.5014   1.5327   1.5470   1.5674
     1.5799   1.6004   1.6238   1.6428   1.6579   1.6927   1.7377   1.7450
     1.7755   1.7942   1.8173   1.9833   2.0165   2.0587   2.0934   2.1110
     2.1425   2.1925   2.2446   2.2976   2.6285   2.7222   2.8138   3.1722

          k =-0.1250 0.1250-0.1250 (132670 PWs)   bands (ev):

   -18.4388 -18.4358 -18.4284 -18.4063 -18.3304 -18.3238 -18.3214 -18.3203
   -18.3198 -18.3125 -18.3118 -18.3107 -18.3025 -18.3015 -18.2930 -18.2846
   -18.2727 -18.2586 -18.2497 -18.2369 -18.2303 -18.2275 -18.2264 -18.2232
   -18.2125 -18.2113 -18.2096 -18.2025 -18.1986 -18.1938 -18.1936 -18.1891
   -18.1852 -18.1804 -18.1754 -18.1687 -18.1607 -18.1602 -18.1527 -18.1520
   -18.1395 -18.1355 -18.1280 -18.0334 -18.0305 -18.0197 -18.0119 -18.0049
    -9.5675  -9.5041  -9.3535  -9.3091  -9.1932  -9.1605  -9.1394  -9.0541
    -8.9942  -8.9792  -8.9467  -8.9239  -8.9060  -8.8578  -8.8290  -8.8049
    -8.7675  -8.7067  -8.6584  -8.6400  -8.5858  -8.5447  -8.5252  -8.5075
    -5.2298  -5.2226  -5.2135  -5.2114  -5.2108  -5.2051  -5.2021  -5.1929
    -5.1922  -5.1867  -5.1773  -5.1681  -5.1175  -5.1034  -5.0952  -5.0882
    -5.0804  -5.0757  -5.0647  -5.0562  -5.0474  -5.0436  -5.0354  -5.0233
    -4.4451  -3.9812  -3.9123  -3.8565  -3.4258  -3.3690  -3.3078  -2.7814
    -0.7415  -0.7226  -0.7009  -0.6382  -0.5921  -0.5283  -0.4809  -0.4414
    -0.3861  -0.3252  -0.2535  -0.1607   0.3819   0.4588   0.4785   0.5231
     0.5967   0.6303   0.6564   0.7355   0.7971   0.8598   0.9084   0.9170
     0.9617   0.9980   1.0133   1.0632   1.1007   1.1231   1.1545   1.1817
     1.2011   1.2420   1.2626   1.2862   1.3050   1.3289   1.3558   1.3711
     1.3922   1.4157   1.4556   1.4784   1.4986   1.5355   1.5446   1.5622
     1.5752   1.6004   1.6175   1.6384   1.6574   1.6996   1.7373   1.7486
     1.7608   1.7904   1.8250   1.9911   2.0092   2.0612   2.0961   2.1100
     2.1489   2.1844   2.2384   2.3061   2.6384   2.7404   2.7883   3.1815

          k = 0.1250-0.1250-0.1250 (132670 PWs)   bands (ev):

   -18.4388 -18.4358 -18.4284 -18.4063 -18.3304 -18.3238 -18.3214 -18.3203
   -18.3198 -18.3125 -18.3118 -18.3107 -18.3025 -18.3015 -18.2930 -18.2846
   -18.2727 -18.2586 -18.2497 -18.2369 -18.2303 -18.2275 -18.2264 -18.2232
   -18.2125 -18.2113 -18.2096 -18.2025 -18.1986 -18.1938 -18.1936 -18.1891
   -18.1852 -18.1804 -18.1754 -18.1687 -18.1607 -18.1602 -18.1527 -18.1520
   -18.1395 -18.1355 -18.1280 -18.0334 -18.0305 -18.0197 -18.0119 -18.0049
    -9.5676  -9.5036  -9.3544  -9.3085  -9.1949  -9.1633  -9.1362  -9.0458
    -9.0042  -8.9727  -8.9469  -8.9248  -8.9102  -8.8639  -8.8244  -8.8039
    -8.7597  -8.7123  -8.6593  -8.6402  -8.5846  -8.5443  -8.5258  -8.5075
    -5.2297  -5.2221  -5.2135  -5.2120  -5.2108  -5.2052  -5.2022  -5.1929
    -5.1920  -5.1868  -5.1773  -5.1680  -5.1174  -5.1034  -5.0951  -5.0882
    -5.0804  -5.0758  -5.0649  -5.0560  -5.0477  -5.0433  -5.0356  -5.0230
    -4.4454  -3.9703  -3.9226  -3.8585  -3.4310  -3.3589  -3.3105  -2.7813
    -0.7551  -0.7395  -0.6768  -0.6467  -0.5880  -0.5406  -0.4808  -0.4247
    -0.3609  -0.3234  -0.2583  -0.1750   0.3839   0.4601   0.4852   0.5230
     0.5893   0.6249   0.6641   0.7277   0.7908   0.8629   0.8952   0.9418
     0.9531   0.9954   1.0396   1.0686   1.0831   1.1214   1.1492   1.1678
     1.1950   1.2245   1.2624   1.2826   1.3115   1.3288   1.3547   1.3851
     1.4024   1.4189   1.4553   1.4750   1.4959   1.5250   1.5386   1.5576
     1.5830   1.5957   1.6394   1.6610   1.6742   1.6948   1.7325   1.7496
     1.7587   1.7937   1.8172   1.9849   2.0077   2.0491   2.0898   2.1073
     2.1492   2.1963   2.2311   2.3089   2.6401   2.7456   2.7878   3.1821

          k =-0.1250-0.1250 0.3750 (132608 PWs)   bands (ev):

   -18.4388 -18.4358 -18.4284 -18.4063 -18.3304 -18.3238 -18.3214 -18.3203
   -18.3198 -18.3125 -18.3118 -18.3107 -18.3025 -18.3015 -18.2930 -18.2846
   -18.2727 -18.2586 -18.2497 -18.2369 -18.2303 -18.2275 -18.2264 -18.2232
   -18.2125 -18.2113 -18.2096 -18.2025 -18.1986 -18.1938 -18.1936 -18.1891
   -18.1852 -18.1804 -18.1754 -18.1687 -18.1607 -18.1602 -18.1527 -18.1520
   -18.1395 -18.1355 -18.1280 -18.0334 -18.0305 -18.0197 -18.0119 -18.0049
    -9.5630  -9.5019  -9.3612  -9.3007  -9.2055  -9.1663  -9.1397  -9.0474
    -9.0122  -8.9707  -8.9573  -8.9163  -8.8920  -8.8630  -8.8257  -8.8140
    -8.7592  -8.6844  -8.6606  -8.6372  -8.5956  -8.5432  -8.5321  -8.5103
    -5.2289  -5.2207  -5.2157  -5.2113  -5.2100  -5.2059  -5.2025  -5.1923
    -5.1918  -5.1866  -5.1779  -5.1678  -5.1179  -5.1034  -5.0950  -5.0877
    -5.0805  -5.0765  -5.0650  -5.0559  -5.0475  -5.0437  -5.0357  -5.0231
    -4.3344  -4.0808  -3.8424  -3.7593  -3.5665  -3.5052  -3.2270  -2.9787
    -0.7534  -0.7145  -0.6743  -0.6040  -0.5197  -0.4486  -0.4029  -0.3639
    -0.1091  -0.0279  -0.0082   0.0969   0.3573   0.4303   0.4646   0.4847
     0.5251   0.5852   0.6262   0.6610   0.6993   0.7269   0.7533   0.7786
     0.8129   0.9133   0.9326   1.0057   1.0478   1.0755   1.1348   1.1620
     1.1871   1.2209   1.2324   1.2608   1.3056   1.3361   1.3406   1.3817
     1.4135   1.4399   1.4602   1.4729   1.5023   1.5319   1.5479   1.5759
     1.6075   1.6198   1.6560   1.6627   1.6884   1.7249   1.7402   1.7719
     1.7978   1.8266   1.8479   1.8911   1.9364   1.9622   2.0274   2.0637
     2.0994   2.1492   2.2173   2.3191   2.4246   2.4872   2.7680   2.9101

          k =-0.1250 0.1250-0.3750 (132608 PWs)   bands (ev):

   -18.4388 -18.4358 -18.4284 -18.4063 -18.3304 -18.3238 -18.3214 -18.3203
   -18.3198 -18.3125 -18.3118 -18.3107 -18.3025 -18.3015 -18.2930 -18.2846
   -18.2727 -18.2586 -18.2497 -18.2369 -18.2303 -18.2275 -18.2264 -18.2232
   -18.2125 -18.2113 -18.2096 -18.2025 -18.1986 -18.1938 -18.1936 -18.1891
   -18.1852 -18.1804 -18.1754 -18.1687 -18.1607 -18.1602 -18.1527 -18.1520
   -18.1395 -18.1355 -18.1280 -18.0334 -18.0305 -18.0197 -18.0119 -18.0049
    -9.5629  -9.5024  -9.3591  -9.3024  -9.2054  -9.1657  -9.1407  -9.0529
    -8.9994  -8.9794  -8.9534  -8.9165  -8.8941  -8.8622  -8.8303  -8.8097
    -8.7594  -8.6831  -8.6626  -8.6359  -8.5961  -8.5433  -8.5324  -8.5098
    -5.2289  -5.2217  -5.2154  -5.2108  -5.2100  -5.2057  -5.2025  -5.1927
    -5.1918  -5.1866  -5.1775  -5.1681  -5.1177  -5.1033  -5.0952  -5.0883
    -5.0804  -5.0758  -5.0651  -5.0559  -5.0472  -5.0440  -5.0355  -5.0234
    -4.3329  -4.0825  -3.8555  -3.7426  -3.5710  -3.5001  -3.2322  -2.9777
    -0.7337  -0.7156  -0.6831  -0.6096  -0.5396  -0.4400  -0.3842  -0.3715
    -0.1181  -0.0535   0.0026   0.1282   0.3502   0.4333   0.4640   0.4730
     0.5253   0.5844   0.6211   0.6555   0.6867   0.7369   0.7541   0.7754
     0.8449   0.8973   0.9393   1.0176   1.0529   1.0890   1.1206   1.1536
     1.1707   1.2130   1.2475   1.2665   1.3114   1.3393   1.3556   1.3790
     1.4031   1.4362   1.4598   1.4694   1.4955   1.5294   1.5444   1.5848
     1.6070   1.6258   1.6545   1.6704   1.6887   1.7206   1.7309   1.7543
     1.8027   1.8145   1.8524   1.8836   1.9426   1.9718   2.0323   2.0569
     2.1020   2.1515   2.2191   2.3167   2.4282   2.4955   2.7480   2.9292

          k = 0.1250-0.1250-0.3750 (132608 PWs)   bands (ev):

   -18.4388 -18.4358 -18.4284 -18.4063 -18.3304 -18.3238 -18.3214 -18.3203
   -18.3198 -18.3125 -18.3118 -18.3107 -18.3025 -18.3015 -18.2930 -18.2846
   -18.2727 -18.2586 -18.2497 -18.2369 -18.2303 -18.2275 -18.2264 -18.2232
   -18.2125 -18.2113 -18.2096 -18.2025 -18.1986 -18.1938 -18.1936 -18.1891
   -18.1852 -18.1804 -18.1754 -18.1687 -18.1607 -18.1602 -18.1527 -18.1520
   -18.1395 -18.1355 -18.1280 -18.0334 -18.0305 -18.0197 -18.0119 -18.0049
    -9.5631  -9.5018  -9.3600  -9.3018  -9.2070  -9.1685  -9.1374  -9.0433
    -9.0106  -8.9741  -8.9538  -8.9171  -8.8983  -8.8666  -8.8262  -8.8084
    -8.7540  -8.6879  -8.6625  -8.6370  -8.5941  -8.5425  -8.5335  -8.5098
    -5.2288  -5.2209  -5.2157  -5.2112  -5.2101  -5.2059  -5.2025  -5.1928
    -5.1917  -5.1867  -5.1775  -5.1679  -5.1176  -5.1033  -5.0951  -5.0883
    -5.0804  -5.0759  -5.0653  -5.0558  -5.0476  -5.0437  -5.0357  -5.0231
    -4.3338  -4.0786  -3.8586  -3.7436  -3.5822  -3.4866  -3.2329  -2.9777
    -0.7363  -0.7170  -0.6872  -0.6139  -0.5282  -0.4541  -0.3983  -0.3578
    -0.0758  -0.0397   0.0055   0.0866   0.3538   0.4134   0.4668   0.4949
     0.5247   0.5765   0.6232   0.6577   0.6838   0.7405   0.7545   0.7839
     0.8184   0.8993   0.9252   1.0170   1.0561   1.1087   1.1320   1.1483
     1.1764   1.2152   1.2478   1.2712   1.2931   1.3208   1.3638   1.3771
     1.4056   1.4249   1.4480   1.4681   1.5060   1.5181   1.5647   1.5858
     1.5954   1.6274   1.6538   1.6862   1.7030   1.7132   1.7440   1.7737
     1.7989   1.8130   1.8540   1.8863   1.9274   1.9701   2.0126   2.0671
     2.1023   2.1436   2.2104   2.3281   2.4146   2.5143   2.7431   2.9299

          k = 0.3750-0.1250 0.1250 (132608 PWs)   bands (ev):

   -18.4388 -18.4358 -18.4284 -18.4063 -18.3304 -18.3238 -18.3214 -18.3203
   -18.3198 -18.3125 -18.3118 -18.3107 -18.3025 -18.3015 -18.2930 -18.2846
   -18.2727 -18.2586 -18.2497 -18.2369 -18.2303 -18.2275 -18.2264 -18.2232
   -18.2125 -18.2112 -18.2097 -18.2025 -18.1986 -18.1938 -18.1936 -18.1891
   -18.1852 -18.1804 -18.1754 -18.1687 -18.1607 -18.1602 -18.1527 -18.1520
   -18.1395 -18.1355 -18.1280 -18.0334 -18.0305 -18.0197 -18.0119 -18.0049
    -9.5502  -9.5221  -9.3463  -9.3102  -9.1959  -9.1661  -9.1407  -9.0642
    -8.9948  -8.9818  -8.9526  -8.9217  -8.9035  -8.8526  -8.8198  -8.7952
    -8.7661  -8.7072  -8.6593  -8.6318  -8.5879  -8.5492  -8.5269  -8.5130
    -5.2293  -5.2218  -5.2149  -5.2111  -5.2096  -5.2044  -5.2033  -5.1927
    -5.1922  -5.1861  -5.1782  -5.1680  -5.1173  -5.1034  -5.0956  -5.0878
    -5.0806  -5.0757  -5.0652  -5.0561  -5.0468  -5.0439  -5.0357  -5.0235
    -4.3201  -4.1177  -3.8077  -3.7563  -3.5795  -3.5209  -3.2081  -2.9880
    -0.7200  -0.6715  -0.6255  -0.5846  -0.5162  -0.4391  -0.4114  -0.3416
    -0.2495  -0.1191   0.0011   0.0903   0.3863   0.4149   0.4519   0.5017
     0.5406   0.5703   0.5956   0.6083   0.6737   0.6864   0.7747   0.8096
     0.8385   0.9037   0.9623   1.0064   1.0371   1.1135   1.1241   1.1678
     1.1857   1.2091   1.2512   1.2967   1.3072   1.3270   1.3484   1.3889
     1.4107   1.4184   1.4614   1.4756   1.5117   1.5278   1.5599   1.5781
     1.6083   1.6383   1.6523   1.6781   1.6873   1.7291   1.7482   1.7692
     1.7785   1.8147   1.8628   1.8881   1.9597   1.9799   2.0047   2.0658
     2.0986   2.1448   2.2304   2.2831   2.4552   2.5242   2.7247   2.9551

          k =-0.3750-0.1250-0.1250 (132608 PWs)   bands (ev):

   -18.4388 -18.4358 -18.4284 -18.4063 -18.3304 -18.3238 -18.3214 -18.3203
   -18.3198 -18.3125 -18.3118 -18.3107 -18.3025 -18.3015 -18.2930 -18.2846
   -18.2727 -18.2586 -18.2497 -18.2369 -18.2303 -18.2275 -18.2264 -18.2232
   -18.2125 -18.2112 -18.2097 -18.2025 -18.1986 -18.1938 -18.1936 -18.1891
   -18.1852 -18.1804 -18.1754 -18.1687 -18.1607 -18.1602 -18.1527 -18.1520
   -18.1395 -18.1355 -18.1280 -18.0334 -18.0305 -18.0197 -18.0119 -18.0049
    -9.5509  -9.5210  -9.3469  -9.3101  -9.1969  -9.1675  -9.1374  -9.0642
    -8.9932  -8.9835  -8.9524  -8.9215  -8.9033  -8.8608  -8.8139  -8.7963
    -8.7589  -8.7115  -8.6607  -8.6322  -8.5867  -8.5492  -8.5264  -8.5136
    -5.2293  -5.2217  -5.2147  -5.2110  -5.2099  -5.2044  -5.2032  -5.1927
    -5.1916  -5.1861  -5.1789  -5.1678  -5.1174  -5.1034  -5.0954  -5.0871
    -5.0810  -5.0761  -5.0653  -5.0561  -5.0468  -5.0439  -5.0357  -5.0235
    -4.3228  -4.1089  -3.8085  -3.7708  -3.5667  -3.5227  -3.2171  -2.9793
    -0.7476  -0.6896  -0.6105  -0.5891  -0.5037  -0.4489  -0.3848  -0.3279
    -0.2352  -0.1134  -0.0067   0.0794   0.3801   0.4180   0.4531   0.4997
     0.5493   0.5696   0.6004   0.6129   0.6475   0.6783   0.7490   0.8072
     0.8467   0.9152   0.9738   1.0181   1.0566   1.0929   1.1198   1.1660
     1.1874   1.2175   1.2457   1.2748   1.3073   1.3334   1.3670   1.3829
     1.4068   1.4222   1.4658   1.4851   1.4937   1.5268   1.5549   1.5919
     1.6212   1.6305   1.6594   1.6816   1.6960   1.7157   1.7475   1.7610
     1.7795   1.8295   1.8425   1.8851   1.9465   1.9782   2.0226   2.0589
     2.0949   2.1419   2.2240   2.2844   2.4515   2.5262   2.7468   2.9668

          k = 0.3750 0.1250-0.1250 (132608 PWs)   bands (ev):

   -18.4388 -18.4358 -18.4284 -18.4063 -18.3304 -18.3238 -18.3214 -18.3203
   -18.3198 -18.3125 -18.3118 -18.3107 -18.3025 -18.3015 -18.2930 -18.2846
   -18.2727 -18.2586 -18.2497 -18.2369 -18.2303 -18.2275 -18.2264 -18.2232
   -18.2125 -18.2112 -18.2097 -18.2025 -18.1986 -18.1938 -18.1936 -18.1891
   -18.1852 -18.1804 -18.1754 -18.1687 -18.1607 -18.1602 -18.1527 -18.1520
   -18.1395 -18.1355 -18.1280 -18.0334 -18.0305 -18.0197 -18.0119 -18.0049
    -9.5509  -9.5208  -9.3498  -9.3077  -9.1938  -9.1684  -9.1403  -9.0595
    -9.0063  -8.9752  -8.9546  -8.9210  -8.9014  -8.8529  -8.8178  -8.7979
    -8.7665  -8.7062  -8.6583  -8.6331  -8.5874  -8.5493  -8.5263  -8.5136
    -5.2293  -5.2209  -5.2153  -5.2113  -5.2101  -5.2045  -5.2032  -5.1925
    -5.1917  -5.1859  -5.1789  -5.1678  -5.1174  -5.1035  -5.0953  -5.0870
    -5.0809  -5.0763  -5.0652  -5.0560  -5.0472  -5.0436  -5.0359  -5.0233
    -4.3241  -4.1069  -3.8176  -3.7617  -3.5767  -3.5119  -3.2146  -2.9848
    -0.7250  -0.6797  -0.6082  -0.5947  -0.5181  -0.4521  -0.3923  -0.3326
    -0.2478  -0.1125  -0.0153   0.0895   0.3917   0.4153   0.4486   0.5006
     0.5487   0.5678   0.6010   0.6244   0.6605   0.6727   0.7468   0.8130
     0.8531   0.9066   0.9685   0.9919   1.0519   1.0958   1.1434   1.1621
     1.2000   1.2240   1.2435   1.2715   1.3003   1.3373   1.3491   1.3880
     1.4073   1.4215   1.4631   1.4774   1.4860   1.5403   1.5497   1.5726
     1.6122   1.6471   1.6562   1.6756   1.7198   1.7346   1.7475   1.7689
     1.7980   1.8181   1.8418   1.8847   1.9408   1.9773   2.0133   2.0537
     2.0999   2.1545   2.2219   2.2976   2.4379   2.5247   2.7295   2.9534

          k =-0.3750 0.1250 0.1250 (132608 PWs)   bands (ev):

   -18.4388 -18.4358 -18.4284 -18.4063 -18.3304 -18.3238 -18.3214 -18.3203
   -18.3198 -18.3125 -18.3118 -18.3107 -18.3025 -18.3015 -18.2930 -18.2846
   -18.2727 -18.2586 -18.2497 -18.2369 -18.2303 -18.2275 -18.2264 -18.2232
   -18.2125 -18.2112 -18.2097 -18.2025 -18.1986 -18.1938 -18.1936 -18.1891
   -18.1852 -18.1804 -18.1754 -18.1687 -18.1607 -18.1602 -18.1527 -18.1520
   -18.1395 -18.1355 -18.1280 -18.0334 -18.0305 -18.0197 -18.0119 -18.0049
    -9.5504  -9.5217  -9.3476  -9.3082  -9.1988  -9.1695  -9.1373  -9.0570
    -9.0000  -8.9810  -8.9503  -8.9235  -8.9059  -8.8588  -8.8149  -8.7947
    -8.7591  -8.7119  -8.6609  -8.6317  -8.5868  -8.5488  -8.5272  -8.5131
    -5.2292  -5.2211  -5.2151  -5.2112  -5.2099  -5.2046  -5.2032  -5.1926
    -5.1922  -5.1862  -5.1784  -5.1679  -5.1171  -5.1033  -5.0955  -5.0878
    -5.0806  -5.0757  -5.0655  -5.0559  -5.0473  -5.0436  -5.0359  -5.0233
    -4.3210  -4.1153  -3.8091  -3.7564  -3.5837  -3.5199  -3.2023  -2.9902
    -0.7433  -0.6790  -0.6257  -0.5786  -0.4897  -0.4374  -0.3870  -0.3401
    -0.2680  -0.1259  -0.0028   0.0847   0.3918   0.4207   0.4510   0.4971
     0.5512   0.5749   0.5859   0.6063   0.6630   0.6972   0.7518   0.8267
     0.8509   0.8935   0.9658   1.0103   1.0505   1.0978   1.1240   1.1560
     1.1866   1.2154   1.2448   1.2760   1.2919   1.3347   1.3672   1.3916
     1.4149   1.4322   1.4522   1.4743   1.5012   1.5290   1.5640   1.5755
     1.6067   1.6448   1.6568   1.6868   1.7023   1.7237   1.7539   1.7682
     1.7919   1.8059   1.8599   1.8860   1.9472   1.9710   1.9965   2.0614
     2.1063   2.1418   2.2207   2.3008   2.4504   2.5126   2.7489   2.9564

          k =-0.1250 0.3750 0.1250 (132608 PWs)   bands (ev):

   -18.4388 -18.4358 -18.4284 -18.4063 -18.3304 -18.3238 -18.3214 -18.3203
   -18.3198 -18.3125 -18.3118 -18.3107 -18.3025 -18.3015 -18.2930 -18.2846
   -18.2727 -18.2586 -18.2497 -18.2369 -18.2303 -18.2275 -18.2264 -18.2232
   -18.2125 -18.2113 -18.2096 -18.2025 -18.1986 -18.1938 -18.1936 -18.1891
   -18.1852 -18.1804 -18.1754 -18.1687 -18.1607 -18.1602 -18.1527 -18.1520
   -18.1395 -18.1355 -18.1280 -18.0334 -18.0305 -18.0197 -18.0119 -18.0049
    -9.5509  -9.5211  -9.3464  -9.3026  -9.2130  -9.1700  -9.1369  -9.0485
    -9.0030  -8.9712  -8.9535  -8.9242  -8.8981  -8.8690  -8.8220  -8.8021
    -8.7578  -8.6937  -8.6642  -8.6319  -8.5839  -8.5562  -8.5284  -8.5106
    -5.2294  -5.2220  -5.2134  -5.2117  -5.2103  -5.2053  -5.2021  -5.1924
    -5.1920  -5.1871  -5.1779  -5.1682  -5.1170  -5.1024  -5.0964  -5.0878
    -5.0814  -5.0755  -5.0655  -5.0567  -5.0469  -5.0432  -5.0357  -5.0230
    -4.3233  -4.1023  -3.8081  -3.7640  -3.5691  -3.5306  -3.2249  -2.9836
    -0.7000  -0.6788  -0.6484  -0.5898  -0.5289  -0.4606  -0.4247  -0.3134
    -0.2063  -0.0511   0.0111   0.1145   0.3105   0.4153   0.4718   0.4882
     0.5255   0.5303   0.5757   0.6082   0.6932   0.7237   0.7574   0.8170
     0.8799   0.9132   0.9884   1.0098   1.0450   1.0861   1.1328   1.1485
     1.1755   1.2132   1.2346   1.2823   1.3058   1.3233   1.3471   1.3787
     1.3861   1.4296   1.4489   1.4822   1.5040   1.5335   1.5398   1.5694
     1.6130   1.6265   1.6603   1.6901   1.7017   1.7310   1.7535   1.7764
     1.8165   1.8324   1.8560   1.8988   1.9179   1.9829   2.0217   2.0499
     2.0929   2.1227   2.2438   2.3033   2.4284   2.4747   2.7727   2.9126

          k =-0.1250-0.3750-0.1250 (132608 PWs)   bands (ev):

   -18.4388 -18.4358 -18.4284 -18.4063 -18.3304 -18.3238 -18.3214 -18.3203
   -18.3198 -18.3125 -18.3118 -18.3107 -18.3025 -18.3015 -18.2930 -18.2846
   -18.2727 -18.2586 -18.2497 -18.2369 -18.2303 -18.2275 -18.2264 -18.2232
   -18.2125 -18.2113 -18.2096 -18.2025 -18.1986 -18.1938 -18.1936 -18.1891
   -18.1852 -18.1804 -18.1754 -18.1687 -18.1607 -18.1602 -18.1527 -18.1520
   -18.1395 -18.1355 -18.1280 -18.0334 -18.0305 -18.0197 -18.0119 -18.0049
    -9.5516  -9.5202  -9.3467  -9.3032  -9.2125  -9.1680  -9.1370  -9.0540
    -8.9976  -8.9743  -8.9552  -8.9227  -8.8913  -8.8739  -8.8214  -8.8034
    -8.7575  -8.6933  -8.6637  -8.6329  -8.5836  -8.5564  -8.5278  -8.5111
    -5.2295  -5.2225  -5.2132  -5.2113  -5.2107  -5.2052  -5.2020  -5.1923
    -5.1915  -5.1869  -5.1786  -5.1681  -5.1173  -5.1024  -5.0963  -5.0872
    -5.0816  -5.0759  -5.0653  -5.0569  -5.0464  -5.0435  -5.0355  -5.0232
    -4.3257  -4.0935  -3.8163  -3.7686  -3.5585  -3.5316  -3.2349  -2.9759
    -0.7132  -0.6810  -0.6516  -0.5739  -0.5356  -0.4660  -0.4252  -0.3184
    -0.1870  -0.0376   0.0317   0.1045   0.2953   0.4058   0.4698   0.4943
     0.5172   0.5416   0.5841   0.6043   0.6920   0.7042   0.7605   0.8124
     0.8886   0.8987   0.9768   1.0184   1.0567   1.1019   1.1236   1.1435
     1.1739   1.2018   1.2569   1.2715   1.2909   1.3324   1.3456   1.3814
     1.4051   1.4400   1.4545   1.4788   1.4947   1.5426   1.5554   1.5829
     1.6020   1.6131   1.6401   1.6700   1.7170   1.7294   1.7407   1.7867
     1.8180   1.8377   1.8540   1.8799   1.9148   1.9888   2.0166   2.0656
     2.0935   2.1249   2.2561   2.2926   2.4237   2.4760   2.7826   2.9134

          k = 0.1250 0.3750-0.1250 (132608 PWs)   bands (ev):

   -18.4388 -18.4358 -18.4284 -18.4063 -18.3304 -18.3238 -18.3214 -18.3203
   -18.3198 -18.3125 -18.3118 -18.3107 -18.3025 -18.3015 -18.2930 -18.2846
   -18.2727 -18.2586 -18.2497 -18.2369 -18.2303 -18.2275 -18.2264 -18.2232
   -18.2125 -18.2113 -18.2096 -18.2025 -18.1986 -18.1938 -18.1936 -18.1891
   -18.1852 -18.1804 -18.1754 -18.1687 -18.1607 -18.1602 -18.1527 -18.1520
   -18.1395 -18.1355 -18.1280 -18.0334 -18.0305 -18.0197 -18.0119 -18.0049
    -9.5511  -9.5206  -9.3487  -9.3010  -9.2117  -9.1654  -9.1415  -9.0508
    -9.0053  -8.9699  -8.9567  -8.9220  -8.8902  -8.8681  -8.8228  -8.8045
    -8.7650  -8.6886  -8.6625  -8.6326  -8.5852  -8.5566  -8.5274  -8.5112
    -5.2295  -5.2219  -5.2135  -5.2118  -5.2102  -5.2053  -5.2020  -5.1922
    -5.1916  -5.1869  -5.1785  -5.1681  -5.1173  -5.1024  -5.0962  -5.0872
    -5.0815  -5.0761  -5.0653  -5.0567  -5.0468  -5.0432  -5.0357  -5.0230
    -4.3259  -4.0952  -3.8112  -3.7719  -3.5562  -3.5328  -3.2323  -2.9805
    -0.7038  -0.6733  -0.6284  -0.6021  -0.5304  -0.4577  -0.4217  -0.3398
    -0.2026  -0.0436   0.0210   0.1107   0.2996   0.4030   0.4608   0.4889
     0.5272   0.5556   0.5729   0.6212   0.6872   0.7159   0.7489   0.8357
     0.8727   0.9242   0.9886   1.0143   1.0442   1.0774   1.1407   1.1551
     1.1882   1.2071   1.2250   1.2679   1.2967   1.3215   1.3420   1.3676
     1.3988   1.4283   1.4448   1.4827   1.5078   1.5296   1.5518   1.5730
     1.6226   1.6378   1.6484   1.6846   1.7069   1.7307   1.7541   1.7675
     1.8036   1.8410   1.8552   1.8885   1.9334   1.9956   2.0213   2.0664
     2.0864   2.1172   2.2677   2.2814   2.3991   2.4808   2.7885   2.8986

          k = 0.1250-0.3750 0.1250 (132608 PWs)   bands (ev):

   -18.4388 -18.4358 -18.4284 -18.4063 -18.3304 -18.3238 -18.3214 -18.3203
   -18.3198 -18.3125 -18.3118 -18.3107 -18.3025 -18.3015 -18.2930 -18.2846
   -18.2727 -18.2586 -18.2497 -18.2369 -18.2303 -18.2275 -18.2264 -18.2232
   -18.2125 -18.2113 -18.2096 -18.2025 -18.1986 -18.1938 -18.1936 -18.1891
   -18.1852 -18.1804 -18.1754 -18.1687 -18.1607 -18.1602 -18.1527 -18.1520
   -18.1395 -18.1355 -18.1280 -18.0334 -18.0305 -18.0197 -18.0119 -18.0049
    -9.5506  -9.5217  -9.3463  -9.3020  -9.2134  -9.1665  -9.1399  -9.0539
    -8.9954  -8.9780  -8.9517  -8.9250  -8.8921  -8.8664  -8.8251  -8.8020
    -8.7646  -8.6904  -8.6609  -8.6331  -8.5852  -8.5564  -8.5279  -8.5108
    -5.2296  -5.2225  -5.2134  -5.2112  -5.2103  -5.2052  -5.2020  -5.1924
    -5.1919  -5.1869  -5.1780  -5.1683  -5.1172  -5.1023  -5.0965  -5.0878
    -5.0814  -5.0754  -5.0653  -5.0568  -5.0465  -5.0434  -5.0355  -5.0233
    -4.3229  -4.1046  -3.8057  -3.7599  -3.5704  -3.5358  -3.2215  -2.9857
    -0.7136  -0.6700  -0.6146  -0.5939  -0.5190  -0.4729  -0.4312  -0.3373
    -0.2104  -0.0570   0.0055   0.1277   0.3229   0.4134   0.4623   0.4836
     0.5166   0.5483   0.5873   0.6144   0.6868   0.7287   0.7636   0.8289
     0.8640   0.9104   0.9663   1.0133   1.0485   1.0756   1.1306   1.1507
     1.1718   1.2296   1.2606   1.2795   1.3031   1.3135   1.3324   1.3938
     1.4045   1.4157   1.4450   1.4857   1.5072   1.5281   1.5508   1.5822
     1.5956   1.6166   1.6533   1.6806   1.6950   1.7287   1.7581   1.7673
     1.8059   1.8235   1.8586   1.9092   1.9303   1.9935   2.0333   2.0609
     2.0844   2.1210   2.2454   2.3110   2.4232   2.4629   2.7845   2.8998

          k =-0.1250-0.3750 0.3750 (132616 PWs)   bands (ev):

   -18.4388 -18.4358 -18.4284 -18.4063 -18.3304 -18.3238 -18.3214 -18.3203
   -18.3198 -18.3125 -18.3118 -18.3107 -18.3025 -18.3015 -18.2930 -18.2846
   -18.2727 -18.2586 -18.2497 -18.2369 -18.2303 -18.2275 -18.2264 -18.2232
   -18.2125 -18.2113 -18.2096 -18.2025 -18.1986 -18.1938 -18.1936 -18.1891
   -18.1852 -18.1804 -18.1754 -18.1687 -18.1607 -18.1602 -18.1527 -18.1520
   -18.1395 -18.1355 -18.1280 -18.0334 -18.0305 -18.0197 -18.0119 -18.0049
    -9.5473  -9.5181  -9.3525  -9.2981  -9.2090  -9.1756  -9.1532  -9.0488
    -9.0097  -8.9648  -8.9588  -8.9118  -8.8920  -8.8767  -8.8269  -8.8025
    -8.7438  -8.6793  -8.6657  -8.6323  -8.5894  -8.5562  -8.5322  -8.5146
    -5.2288  -5.2208  -5.2158  -5.2111  -5.2098  -5.2058  -5.2025  -5.1921
    -5.1916  -5.1870  -5.1785  -5.1681  -5.1174  -5.1023  -5.0961  -5.0872
    -5.0814  -5.0760  -5.0656  -5.0564  -5.0466  -5.0435  -5.0358  -5.0231
    -4.2159  -4.0150  -3.9306  -3.7279  -3.6335  -3.4520  -3.3714  -3.1656
    -0.7040  -0.6606  -0.5575  -0.5180  -0.3405  -0.2594  -0.2017  -0.1538
    -0.1062   0.0486   0.0841   0.1982   0.2476   0.3689   0.4111   0.4916
     0.5079   0.5323   0.5555   0.5940   0.6431   0.6599   0.7016   0.7174
     0.8008   0.8600   0.9071   0.9629   0.9742   1.0188   1.0705   1.1063
     1.1333   1.1747   1.1877   1.2388   1.2678   1.2948   1.3137   1.3380
     1.3685   1.4262   1.4484   1.4876   1.5207   1.5549   1.5657   1.5848
     1.6204   1.6611   1.6938   1.7100   1.7249   1.7507   1.7953   1.8064
     1.8241   1.8526   1.8702   1.8840   1.9269   1.9367   1.9932   2.0289
     2.0404   2.0815   2.0996   2.1801   2.2967   2.4117   2.5449   2.6170

          k =-0.1250 0.3750-0.3750 (132616 PWs)   bands (ev):

   -18.4388 -18.4358 -18.4284 -18.4063 -18.3304 -18.3238 -18.3214 -18.3203
   -18.3198 -18.3125 -18.3118 -18.3107 -18.3025 -18.3015 -18.2930 -18.2846
   -18.2727 -18.2586 -18.2497 -18.2369 -18.2303 -18.2275 -18.2264 -18.2232
   -18.2125 -18.2113 -18.2096 -18.2025 -18.1986 -18.1938 -18.1936 -18.1891
   -18.1852 -18.1804 -18.1754 -18.1687 -18.1607 -18.1602 -18.1527 -18.1520
   -18.1395 -18.1355 -18.1280 -18.0334 -18.0305 -18.0197 -18.0119 -18.0049
    -9.5472  -9.5185  -9.3507  -9.2993  -9.2096  -9.1763  -9.1528  -9.0512
    -9.0004  -8.9781  -8.9478  -8.9165  -8.8913  -8.8766  -8.8287  -8.8007
    -8.7441  -8.6791  -8.6649  -8.6330  -8.5894  -8.5563  -8.5327  -8.5140
    -5.2288  -5.2217  -5.2154  -5.2105  -5.2100  -5.2056  -5.2025  -5.1923
    -5.1916  -5.1869  -5.1782  -5.1684  -5.1173  -5.1022  -5.0964  -5.0878
    -5.0814  -5.0754  -5.0656  -5.0565  -5.0462  -5.0437  -5.0356  -5.0233
    -4.2128  -4.0228  -3.9294  -3.7235  -3.6330  -3.4520  -3.3705  -3.1681
    -0.7035  -0.6590  -0.5507  -0.5135  -0.3459  -0.2658  -0.2163  -0.1510
    -0.1042   0.0367   0.0733   0.2209   0.2601   0.3775   0.4244   0.4723
     0.5013   0.5194   0.5673   0.5985   0.6379   0.6683   0.7046   0.7351
     0.7969   0.8509   0.8874   0.9421   0.9911   1.0275   1.0716   1.0867
     1.1469   1.1603   1.1955   1.2389   1.2641   1.3007   1.3198   1.3568
     1.3853   1.4313   1.4500   1.4864   1.5135   1.5465   1.5550   1.5966
     1.6192   1.6528   1.6771   1.6961   1.7322   1.7414   1.7848   1.7937
     1.8272   1.8538   1.8697   1.8866   1.9337   1.9536   2.0008   2.0230
     2.0463   2.0743   2.1041   2.1813   2.3151   2.4087   2.5361   2.6189

          k = 0.1250-0.3750-0.3750 (132616 PWs)   bands (ev):

   -18.4388 -18.4358 -18.4284 -18.4063 -18.3304 -18.3238 -18.3214 -18.3203
   -18.3198 -18.3125 -18.3118 -18.3107 -18.3025 -18.3015 -18.2930 -18.2846
   -18.2727 -18.2586 -18.2497 -18.2369 -18.2303 -18.2275 -18.2264 -18.2232
   -18.2125 -18.2113 -18.2096 -18.2025 -18.1986 -18.1938 -18.1936 -18.1891
   -18.1852 -18.1804 -18.1754 -18.1687 -18.1607 -18.1602 -18.1527 -18.1520
   -18.1395 -18.1355 -18.1280 -18.0334 -18.0305 -18.0197 -18.0119 -18.0049
    -9.5475  -9.5179  -9.3509  -9.3000  -9.2087  -9.1811  -9.1487  -9.0451
    -9.0093  -8.9704  -8.9501  -8.9163  -8.8975  -8.8774  -8.8256  -8.8011
    -8.7369  -8.6836  -8.6685  -8.6316  -8.5878  -8.5560  -8.5334  -8.5139
    -5.2286  -5.2210  -5.2157  -5.2109  -5.2099  -5.2058  -5.2025  -5.1924
    -5.1916  -5.1871  -5.1780  -5.1682  -5.1171  -5.1022  -5.0963  -5.0878
    -5.0813  -5.0755  -5.0658  -5.0563  -5.0467  -5.0434  -5.0358  -5.0231
    -4.2148  -3.9983  -3.9574  -3.7228  -3.6284  -3.4398  -3.3858  -3.1645
    -0.6933  -0.6656  -0.5685  -0.5145  -0.3832  -0.2456  -0.1992  -0.1311
    -0.0562   0.0144   0.1054   0.1720   0.2359   0.3865   0.4305   0.4686
     0.4996   0.5233   0.5546   0.6024   0.6190   0.6839   0.7059   0.7323
     0.7707   0.8647   0.8915   0.9661   1.0032   1.0101   1.0762   1.1047
     1.1355   1.1743   1.1950   1.2316   1.2654   1.2858   1.3103   1.3562
     1.3726   1.4142   1.4457   1.5007   1.5111   1.5378   1.5609   1.5980
     1.6360   1.6627   1.6821   1.7023   1.7339   1.7677   1.7772   1.8084
     1.8286   1.8455   1.8725   1.9000   1.9143   1.9339   1.9808   2.0235
     2.0458   2.0749   2.0992   2.1872   2.3075   2.4330   2.5023   2.6420

          k = 0.3750 0.1250-0.3750 (132616 PWs)   bands (ev):

   -18.4388 -18.4358 -18.4284 -18.4063 -18.3304 -18.3238 -18.3214 -18.3203
   -18.3198 -18.3125 -18.3118 -18.3107 -18.3025 -18.3015 -18.2930 -18.2846
   -18.2727 -18.2586 -18.2497 -18.2369 -18.2303 -18.2275 -18.2264 -18.2232
   -18.2125 -18.2112 -18.2097 -18.2025 -18.1986 -18.1938 -18.1936 -18.1891
   -18.1852 -18.1804 -18.1754 -18.1687 -18.1607 -18.1602 -18.1527 -18.1520
   -18.1395 -18.1355 -18.1280 -18.0334 -18.0305 -18.0197 -18.0119 -18.0049
    -9.5470  -9.5185  -9.3505  -9.3071  -9.2060  -9.1705  -9.1430  -9.0446
    -9.0289  -8.9753  -8.9575  -8.9144  -8.8910  -8.8536  -8.8172  -8.8073
    -8.7576  -8.6835  -8.6572  -8.6387  -8.5936  -8.5489  -8.5312  -8.5159
    -5.2291  -5.2200  -5.2180  -5.2103  -5.2093  -5.2046  -5.2034  -5.1919
    -5.1917  -5.1860  -5.1789  -5.1678  -5.1174  -5.1033  -5.0953  -5.0871
    -5.0808  -5.0761  -5.0658  -5.0563  -5.0478  -5.0436  -5.0355  -5.0229
    -4.2160  -3.9985  -3.9575  -3.7527  -3.6238  -3.4073  -3.3781  -3.1691
    -0.7192  -0.6374  -0.5727  -0.4688  -0.3744  -0.3059  -0.2249  -0.1814
    -0.0769   0.0272   0.0927   0.1674   0.3345   0.3917   0.4384   0.4595
     0.4951   0.5277   0.5805   0.5993   0.6245   0.6616   0.6896   0.7350
     0.7978   0.8207   0.8840   0.9348   0.9757   1.0102   1.0708   1.1256
     1.1592   1.2036   1.2102   1.2315   1.2611   1.2869   1.3200   1.3468
     1.3810   1.4212   1.4497   1.4796   1.5204   1.5491   1.5808   1.5999
     1.6349   1.6468   1.6747   1.6917   1.7321   1.7574   1.7731   1.7997
     1.8232   1.8379   1.8760   1.8958   1.9167   1.9465   1.9816   2.0125
     2.0332   2.0980   2.1353   2.1807   2.2514   2.4494   2.5636   2.6687

          k =-0.3750-0.1250-0.3750 (132616 PWs)   bands (ev):

   -18.4388 -18.4358 -18.4284 -18.4063 -18.3304 -18.3238 -18.3214 -18.3203
   -18.3198 -18.3125 -18.3118 -18.3107 -18.3025 -18.3015 -18.2930 -18.2846
   -18.2727 -18.2586 -18.2497 -18.2369 -18.2303 -18.2275 -18.2264 -18.2232
   -18.2125 -18.2112 -18.2097 -18.2025 -18.1986 -18.1938 -18.1936 -18.1891
   -18.1852 -18.1804 -18.1754 -18.1687 -18.1607 -18.1602 -18.1527 -18.1520
   -18.1395 -18.1355 -18.1280 -18.0334 -18.0305 -18.0197 -18.0119 -18.0049
    -9.5470  -9.5187  -9.3473  -9.3102  -9.2072  -9.1716  -9.1401  -9.0555
    -9.0126  -8.9809  -8.9559  -8.9138  -8.8934  -8.8598  -8.8140  -8.8056
    -8.7523  -8.6857  -8.6630  -8.6359  -8.5928  -8.5488  -8.5312  -8.5158
    -5.2290  -5.2213  -5.2170  -5.2102  -5.2091  -5.2045  -5.2035  -5.1921
    -5.1916  -5.1861  -5.1789  -5.1679  -5.1174  -5.1033  -5.0953  -5.0872
    -5.0809  -5.0759  -5.0658  -5.0564  -5.0475  -5.0438  -5.0352  -5.0231
    -4.2134  -4.0136  -3.9409  -3.7637  -3.6066  -3.4300  -3.3746  -3.1592
    -0.7317  -0.6431  -0.5682  -0.4777  -0.4004  -0.2686  -0.1941  -0.1532
    -0.0800  -0.0407   0.1100   0.2122   0.3401   0.3748   0.4153   0.4429
     0.5086   0.5352   0.5552   0.6141   0.6254   0.6615   0.6875   0.7162
     0.7791   0.8479   0.8988   0.9260   0.9966   1.0264   1.0811   1.0982
     1.1255   1.1922   1.2180   1.2329   1.2615   1.3018   1.3238   1.3596
     1.3789   1.4085   1.4670   1.4850   1.5169   1.5514   1.5790   1.5894
     1.6131   1.6621   1.6917   1.7093   1.7269   1.7363   1.7764   1.7884
     1.8074   1.8391   1.8544   1.8958   1.9332   1.9589   1.9850   2.0069
     2.0338   2.0988   2.1350   2.1790   2.2402   2.4909   2.5389   2.6841

          k = 0.3750-0.1250 0.3750 (132616 PWs)   bands (ev):

   -18.4388 -18.4358 -18.4284 -18.4063 -18.3304 -18.3238 -18.3214 -18.3203
   -18.3198 -18.3125 -18.3118 -18.3107 -18.3025 -18.3015 -18.2930 -18.2846
   -18.2727 -18.2586 -18.2497 -18.2369 -18.2303 -18.2275 -18.2264 -18.2232
   -18.2125 -18.2112 -18.2097 -18.2025 -18.1986 -18.1938 -18.1936 -18.1891
   -18.1852 -18.1804 -18.1754 -18.1687 -18.1607 -18.1602 -18.1527 -18.1520
   -18.1395 -18.1355 -18.1280 -18.0334 -18.0305 -18.0197 -18.0119 -18.0049
    -9.5467  -9.5192  -9.3474  -9.3102  -9.2053  -9.1704  -9.1437  -9.0548
    -9.0142  -8.9793  -8.9566  -8.9145  -8.8920  -8.8537  -8.8212  -8.8034
    -8.7578  -8.6821  -8.6598  -8.6369  -8.5941  -8.5492  -8.5316  -8.5152
    -5.2290  -5.2213  -5.2172  -5.2102  -5.2089  -5.2044  -5.2035  -5.1922
    -5.1918  -5.1861  -5.1784  -5.1681  -5.1172  -5.1032  -5.0956  -5.0878
    -5.0805  -5.0755  -5.0658  -5.0563  -5.0475  -5.0438  -5.0353  -5.0231
    -4.2112  -4.0221  -3.9384  -3.7649  -3.5967  -3.4309  -3.3714  -3.1676
    -0.7141  -0.6302  -0.5667  -0.4868  -0.4055  -0.2832  -0.1956  -0.1653
    -0.1057  -0.0302   0.1105   0.2242   0.3380   0.3819   0.4153   0.4371
     0.5112   0.5309   0.5616   0.6050   0.6372   0.6596   0.6958   0.7493
     0.7826   0.8398   0.8833   0.9236   0.9934   1.0204   1.0633   1.1000
     1.1558   1.1785   1.2230   1.2402   1.2737   1.2864   1.3230   1.3406
     1.3816   1.4223   1.4493   1.4965   1.5249   1.5548   1.5748   1.6001
     1.6206   1.6422   1.6772   1.6989   1.7243   1.7452   1.7674   1.7918
     1.8008   1.8404   1.8658   1.9153   1.9336   1.9596   1.9877   2.0133
     2.0385   2.0871   2.1330   2.1857   2.2435   2.4684   2.5385   2.6823

          k =-0.3750 0.1250 0.3750 (132616 PWs)   bands (ev):

   -18.4388 -18.4358 -18.4284 -18.4063 -18.3304 -18.3238 -18.3214 -18.3203
   -18.3198 -18.3125 -18.3118 -18.3107 -18.3025 -18.3015 -18.2930 -18.2846
   -18.2727 -18.2586 -18.2497 -18.2369 -18.2303 -18.2275 -18.2264 -18.2232
   -18.2125 -18.2112 -18.2097 -18.2025 -18.1986 -18.1938 -18.1936 -18.1891
   -18.1852 -18.1804 -18.1754 -18.1687 -18.1607 -18.1602 -18.1527 -18.1520
   -18.1395 -18.1355 -18.1280 -18.0334 -18.0305 -18.0197 -18.0119 -18.0049
    -9.5469  -9.5188  -9.3487  -9.3080  -9.2080  -9.1742  -9.1399  -9.0406
    -9.0257  -8.9806  -8.9542  -8.9156  -8.8942  -8.8587  -8.8160  -8.8037
    -8.7526  -8.6861  -8.6606  -8.6373  -8.5925  -8.5487  -8.5321  -8.5153
    -5.2290  -5.2202  -5.2178  -5.2104  -5.2092  -5.2047  -5.2034  -5.1921
    -5.1918  -5.1862  -5.1785  -5.1680  -5.1171  -5.1032  -5.0955  -5.0878
    -5.0805  -5.0756  -5.0660  -5.0562  -5.0479  -5.0435  -5.0355  -5.0229
    -4.2134  -4.0063  -3.9547  -3.7534  -3.6199  -3.4147  -3.3689  -3.1717
    -0.7239  -0.6372  -0.5668  -0.4852  -0.3833  -0.2882  -0.2098  -0.1778
    -0.0606   0.0078   0.1048   0.1454   0.3091   0.3897   0.4448   0.4684
     0.5059   0.5258   0.5713   0.5913   0.6390   0.6739   0.7014   0.7426
     0.7813   0.8176   0.8869   0.9302   0.9774   1.0211   1.0993   1.1100
     1.1388   1.1782   1.2021   1.2447   1.2548   1.2912   1.3260   1.3564
     1.3769   1.4173   1.4442   1.4832   1.5165   1.5640   1.5790   1.6085
     1.6214   1.6576   1.6684   1.7122   1.7208   1.7370   1.7686   1.7939
     1.8280   1.8516   1.8665   1.9045   1.9221   1.9538   1.9762   2.0103
     2.0251   2.0947   2.1251   2.1972   2.2466   2.4551   2.5515   2.6881

          k = 0.3750-0.3750 0.1250 (132616 PWs)   bands (ev):

   -18.4388 -18.4358 -18.4284 -18.4063 -18.3304 -18.3238 -18.3214 -18.3203
   -18.3198 -18.3125 -18.3118 -18.3107 -18.3025 -18.3015 -18.2930 -18.2846
   -18.2728 -18.2586 -18.2497 -18.2369 -18.2303 -18.2275 -18.2264 -18.2232
   -18.2125 -18.2112 -18.2097 -18.2025 -18.1986 -18.1938 -18.1936 -18.1891
   -18.1852 -18.1804 -18.1754 -18.1687 -18.1607 -18.1602 -18.1527 -18.1520
   -18.1395 -18.1355 -18.1280 -18.0334 -18.0305 -18.0197 -18.0119 -18.0049
    -9.5413  -9.5260  -9.3416  -9.3083  -9.2173  -9.1699  -9.1429  -9.0616
    -8.9937  -8.9830  -8.9506  -8.9262  -8.8995  -8.8507  -8.8122  -8.7988
    -8.7632  -8.6898  -8.6599  -8.6337  -8.5856  -8.5603  -8.5287  -8.5143
    -5.2291  -5.2218  -5.2150  -5.2110  -5.2095  -5.2046  -5.2033  -5.1927
    -5.1924  -5.1861  -5.1778  -5.1677  -5.1172  -5.1024  -5.0970  -5.0886
    -5.0807  -5.0745  -5.0655  -5.0568  -5.0461  -5.0435  -5.0357  -5.0235
    -4.2062  -4.0707  -3.8389  -3.7514  -3.6469  -3.5218  -3.3040  -3.1750
    -0.6234  -0.5878  -0.5430  -0.4828  -0.3807  -0.3490  -0.2486  -0.1454
    -0.1340  -0.0139   0.0372   0.2400   0.3401   0.3619   0.3989   0.4345
     0.4809   0.5175   0.5653   0.5953   0.6215   0.6681   0.6970   0.7453
     0.7873   0.8323   0.8841   0.9441   0.9760   1.0140   1.0593   1.1210
     1.1436   1.1841   1.2242   1.2517   1.2785   1.3100   1.3480   1.3634
     1.3967   1.4080   1.4479   1.4935   1.5281   1.5481   1.5692   1.5956
     1.6190   1.6426   1.6703   1.7031   1.7346   1.7561   1.7657   1.7846
     1.8292   1.8420   1.8757   1.9008   1.9262   1.9589   1.9657   2.0274
     2.0501   2.0772   2.1469   2.1978   2.3020   2.4273   2.5255   2.6458

          k =-0.3750-0.3750-0.1250 (132616 PWs)   bands (ev):

   -18.4388 -18.4358 -18.4284 -18.4063 -18.3304 -18.3238 -18.3214 -18.3203
   -18.3198 -18.3125 -18.3118 -18.3107 -18.3025 -18.3015 -18.2930 -18.2846
   -18.2728 -18.2586 -18.2497 -18.2369 -18.2303 -18.2275 -18.2264 -18.2232
   -18.2125 -18.2112 -18.2097 -18.2025 -18.1986 -18.1938 -18.1936 -18.1891
   -18.1852 -18.1804 -18.1754 -18.1687 -18.1607 -18.1602 -18.1527 -18.1520
   -18.1395 -18.1355 -18.1280 -18.0334 -18.0305 -18.0197 -18.0119 -18.0049
    -9.5428  -9.5242  -9.3423  -9.3080  -9.2185  -9.1693  -9.1420  -9.0609
    -8.9911  -8.9860  -8.9501  -8.9267  -8.8995  -8.8563  -8.8072  -8.8009
    -8.7570  -8.6924  -8.6628  -8.6335  -8.5842  -8.5604  -8.5282  -8.5149
    -5.2291  -5.2218  -5.2148  -5.2109  -5.2099  -5.2047  -5.2033  -5.1926
    -5.1920  -5.1861  -5.1784  -5.1675  -5.1173  -5.1024  -5.0967  -5.0883
    -5.0809  -5.0749  -5.0655  -5.0568  -5.0461  -5.0435  -5.0357  -5.0235
    -4.2166  -4.0341  -3.8890  -3.7282  -3.6555  -3.4953  -3.3413  -3.1536
    -0.6466  -0.6032  -0.5277  -0.4960  -0.3965  -0.3283  -0.2402  -0.1260
    -0.0648  -0.0193   0.0471   0.1912   0.3072   0.3390   0.3977   0.4560
     0.4800   0.5350   0.5638   0.5986   0.6116   0.6555   0.6975   0.7285
     0.7809   0.8561   0.9095   0.9338   0.9835   1.0248   1.0677   1.1096
     1.1512   1.1665   1.1897   1.2507   1.2799   1.3120   1.3530   1.3686
     1.3968   1.4314   1.4581   1.4872   1.5201   1.5346   1.5881   1.5998
     1.6235   1.6357   1.6846   1.7046   1.7237   1.7535   1.7721   1.7951
     1.8106   1.8493   1.8654   1.8921   1.9156   1.9648   1.9732   2.0291
     2.0413   2.0773   2.1180   2.2035   2.3108   2.4347   2.5295   2.6621

          k = 0.3750 0.3750-0.1250 (132616 PWs)   bands (ev):

   -18.4388 -18.4358 -18.4284 -18.4063 -18.3304 -18.3238 -18.3214 -18.3203
   -18.3198 -18.3125 -18.3118 -18.3107 -18.3025 -18.3015 -18.2930 -18.2846
   -18.2728 -18.2586 -18.2497 -18.2369 -18.2303 -18.2275 -18.2264 -18.2232
   -18.2125 -18.2112 -18.2097 -18.2025 -18.1986 -18.1938 -18.1936 -18.1891
   -18.1852 -18.1804 -18.1754 -18.1687 -18.1607 -18.1602 -18.1527 -18.1520
   -18.1395 -18.1355 -18.1280 -18.0334 -18.0305 -18.0197 -18.0119 -18.0049
    -9.5426  -9.5243  -9.3448  -9.3065  -9.2155  -9.1691  -9.1443  -9.0592
    -9.0033  -8.9757  -8.9540  -8.9235  -8.8987  -8.8512  -8.8080  -8.8032
    -8.7637  -8.6880  -8.6616  -8.6331  -8.5857  -8.5605  -8.5281  -8.5148
    -5.2290  -5.2211  -5.2153  -5.2112  -5.2099  -5.2048  -5.2033  -5.1925
    -5.1921  -5.1861  -5.1783  -5.1674  -5.1173  -5.1025  -5.0966  -5.0882
    -5.0807  -5.0751  -5.0655  -5.0567  -5.0464  -5.0432  -5.0359  -5.0232
    -4.2175  -4.0335  -3.8896  -3.7373  -3.6425  -3.4951  -3.3400  -3.1592
    -0.6227  -0.5841  -0.5437  -0.4873  -0.4254  -0.3330  -0.2397  -0.1374
    -0.0713  -0.0330   0.0587   0.1978   0.3015   0.3585   0.3897   0.4379
     0.4771   0.5449   0.5595   0.6005   0.6332   0.6597   0.6900   0.7427
     0.7738   0.8661   0.8958   0.9409   0.9728   1.0124   1.0891   1.1218
     1.1509   1.1657   1.2203   1.2416   1.2668   1.2889   1.3398   1.3735
     1.3955   1.4257   1.4439   1.4868   1.5142   1.5430   1.5652   1.5953
     1.6336   1.6473   1.6883   1.7242   1.7440   1.7627   1.7687   1.7881
     1.8133   1.8576   1.8716   1.8966   1.9282   1.9424   1.9736   2.0243
     2.0462   2.0641   2.1267   2.1908   2.3211   2.4263   2.5146   2.6578

          k =-0.3750 0.3750 0.1250 (132616 PWs)   bands (ev):

   -18.4388 -18.4358 -18.4284 -18.4063 -18.3304 -18.3238 -18.3214 -18.3203
   -18.3198 -18.3125 -18.3118 -18.3107 -18.3025 -18.3015 -18.2930 -18.2846
   -18.2728 -18.2586 -18.2497 -18.2369 -18.2303 -18.2275 -18.2264 -18.2232
   -18.2125 -18.2112 -18.2097 -18.2025 -18.1986 -18.1938 -18.1936 -18.1891
   -18.1852 -18.1804 -18.1754 -18.1687 -18.1607 -18.1602 -18.1527 -18.1520
   -18.1395 -18.1355 -18.1280 -18.0334 -18.0305 -18.0197 -18.0119 -18.0049
    -9.5414  -9.5258  -9.3419  -9.3075  -9.2190  -9.1720  -9.1408  -9.0567
    -8.9985  -8.9802  -8.9485  -8.9290  -8.9021  -8.8548  -8.8087  -8.7987
    -8.7574  -8.6927  -8.6632  -8.6325  -8.5845  -8.5602  -8.5290  -8.5142
    -5.2290  -5.2212  -5.2151  -5.2111  -5.2097  -5.2048  -5.2033  -5.1927
    -5.1925  -5.1863  -5.1778  -5.1676  -5.1171  -5.1024  -5.0969  -5.0886
    -5.0807  -5.0746  -5.0657  -5.0566  -5.0465  -5.0432  -5.0360  -5.0232
    -4.2067  -4.0690  -3.8369  -3.7598  -3.6414  -3.5237  -3.3022  -3.1748
    -0.6439  -0.6028  -0.5295  -0.4809  -0.3684  -0.3461  -0.2233  -0.1484
    -0.1184  -0.0192   0.0308   0.2117   0.3316   0.3441   0.4145   0.4278
     0.4860   0.5199   0.5599   0.6065   0.6327   0.6522   0.7105   0.7472
     0.7982   0.8171   0.9000   0.9392   0.9811   1.0146   1.0718   1.1083
     1.1488   1.1698   1.2241   1.2518   1.2672   1.2999   1.3257   1.3768
     1.4044   1.4226   1.4591   1.4806   1.5341   1.5455   1.5554   1.5963
     1.6199   1.6472   1.6979   1.7246   1.7252   1.7448   1.7751   1.7935
     1.8123   1.8525   1.8773   1.8944   1.9090   1.9560   1.9620   2.0239
     2.0454   2.0772   2.1339   2.1968   2.3012   2.4364   2.5315   2.6570

          k =-0.3750-0.3750 0.3750 (132612 PWs)   bands (ev):

   -18.4388 -18.4358 -18.4284 -18.4063 -18.3304 -18.3238 -18.3214 -18.3203
   -18.3198 -18.3125 -18.3118 -18.3107 -18.3025 -18.3015 -18.2930 -18.2846
   -18.2728 -18.2586 -18.2497 -18.2369 -18.2303 -18.2275 -18.2264 -18.2232
   -18.2125 -18.2112 -18.2097 -18.2025 -18.1986 -18.1938 -18.1936 -18.1891
   -18.1852 -18.1804 -18.1754 -18.1687 -18.1607 -18.1602 -18.1527 -18.1520
   -18.1395 -18.1355 -18.1280 -18.0334 -18.0305 -18.0197 -18.0119 -18.0049
    -9.5393  -9.5222  -9.3438  -9.3058  -9.2125  -9.1806  -9.1567  -9.0540
    -9.0155  -8.9749  -8.9490  -8.9148  -8.8962  -8.8607  -8.8129  -8.8009
    -8.7426  -8.6780  -8.6638  -8.6362  -8.5887  -8.5604  -8.5319  -8.5178
    -5.2288  -5.2201  -5.2178  -5.2105  -5.2092  -5.2048  -5.2035  -5.1922
    -5.1920  -5.1863  -5.1786  -5.1676  -5.1173  -5.1022  -5.0965  -5.0882
    -5.0805  -5.0749  -5.0658  -5.0569  -5.0470  -5.0431  -5.0355  -5.0228
    -4.1134  -3.9399  -3.8616  -3.7534  -3.6428  -3.5666  -3.4979  -3.3360
    -0.4991  -0.4407  -0.3930  -0.3198  -0.2812  -0.1883  -0.1424  -0.1332
    -0.0297   0.0671   0.1030   0.2322   0.2717   0.3242   0.3767   0.3960
     0.4222   0.4819   0.5146   0.5604   0.6087   0.6302   0.6464   0.6989
     0.8029   0.8391   0.8621   0.9117   0.9687   1.0011   1.0315   1.0691
     1.1170   1.1297   1.1446   1.1927   1.2166   1.2549   1.2745   1.2936
     1.3508   1.4083   1.4619   1.5071   1.5266   1.5450   1.5786   1.6028
     1.6377   1.6846   1.7329   1.7540   1.7693   1.7809   1.8048   1.8247
     1.8452   1.8626   1.8759   1.8871   1.9100   1.9402   1.9731   1.9973
     2.0165   2.0298   2.0562   2.1060   2.1554   2.2093   2.2512   2.3556

          k =-0.3750 0.3750-0.3750 (132612 PWs)   bands (ev):

   -18.4388 -18.4358 -18.4284 -18.4063 -18.3304 -18.3238 -18.3214 -18.3203
   -18.3198 -18.3125 -18.3118 -18.3107 -18.3025 -18.3015 -18.2930 -18.2846
   -18.2728 -18.2586 -18.2497 -18.2369 -18.2303 -18.2275 -18.2264 -18.2232
   -18.2125 -18.2112 -18.2097 -18.2025 -18.1986 -18.1938 -18.1936 -18.1891
   -18.1852 -18.1804 -18.1754 -18.1687 -18.1607 -18.1602 -18.1527 -18.1520
   -18.1395 -18.1355 -18.1280 -18.0334 -18.0305 -18.0197 -18.0119 -18.0049
    -9.5389  -9.5229  -9.3411  -9.3080  -9.2129  -9.1815  -9.1561  -9.0565
    -9.0086  -8.9796  -8.9451  -8.9183  -8.8955  -8.8610  -8.8154  -8.7983
    -8.7428  -8.6777  -8.6628  -8.6371  -8.5887  -8.5605  -8.5325  -8.5171
    -5.2289  -5.2212  -5.2172  -5.2103  -5.2089  -5.2047  -5.2036  -5.1925
    -5.1919  -5.1863  -5.1782  -5.1679  -5.1172  -5.1021  -5.0968  -5.0886
    -5.0805  -5.0743  -5.0658  -5.0570  -5.0468  -5.0433  -5.0353  -5.0231
    -4.1026  -3.9763  -3.8376  -3.7359  -3.6551  -3.5852  -3.4742  -3.3449
    -0.4912  -0.4457  -0.3660  -0.3211  -0.2793  -0.2157  -0.1802  -0.0950
    -0.0534   0.0358   0.1001   0.2623   0.3096   0.3386   0.3592   0.4204
     0.4418   0.4600   0.5186   0.5411   0.6002   0.6331   0.6512   0.6999
     0.8018   0.8369   0.8670   0.8976   0.9536   0.9943   1.0180   1.0700
     1.1092   1.1326   1.1591   1.2037   1.2296   1.2527   1.2742   1.3136
     1.3420   1.4202   1.4504   1.4959   1.5410   1.5606   1.5880   1.6074
     1.6283   1.6597   1.7063   1.7335   1.7555   1.7774   1.8002   1.8165
     1.8338   1.8645   1.8773   1.9221   1.9361   1.9487   1.9690   1.9832
     2.0263   2.0341   2.0783   2.1322   2.1526   2.1734   2.2636   2.3431

          k = 0.3750-0.3750-0.3750 (132612 PWs)   bands (ev):

   -18.4388 -18.4358 -18.4284 -18.4063 -18.3304 -18.3238 -18.3214 -18.3203
   -18.3198 -18.3125 -18.3118 -18.3107 -18.3025 -18.3015 -18.2930 -18.2846
   -18.2728 -18.2586 -18.2497 -18.2369 -18.2303 -18.2275 -18.2264 -18.2232
   -18.2125 -18.2112 -18.2097 -18.2025 -18.1986 -18.1938 -18.1936 -18.1891
   -18.1852 -18.1804 -18.1754 -18.1687 -18.1607 -18.1602 -18.1527 -18.1520
   -18.1395 -18.1355 -18.1280 -18.0334 -18.0305 -18.0197 -18.0119 -18.0049
    -9.5390  -9.5227  -9.3415  -9.3070  -9.2154  -9.1833  -9.1534  -9.0507
    -9.0130  -8.9789  -8.9427  -8.9220  -8.8969  -8.8634  -8.8128  -8.7989
    -8.7360  -8.6825  -8.6660  -8.6354  -8.5874  -8.5604  -8.5328  -8.5171
    -5.2287  -5.2203  -5.2177  -5.2105  -5.2090  -5.2049  -5.2035  -5.1925
    -5.1920  -5.1864  -5.1782  -5.1678  -5.1170  -5.1021  -5.0967  -5.0886
    -5.0805  -5.0744  -5.0660  -5.0568  -5.0471  -5.0430  -5.0355  -5.0228
    -4.1046  -3.9671  -3.8502  -3.7242  -3.6721  -3.5753  -3.4734  -3.3447
    -0.5082  -0.4521  -0.3984  -0.3007  -0.2919  -0.1756  -0.1422  -0.0732
    -0.0275   0.0456   0.0755   0.1873   0.2412   0.3458   0.3835   0.4117
     0.4472   0.4782   0.5222   0.5757   0.6070   0.6287   0.6602   0.6910
     0.7791   0.8384   0.8757   0.9221   0.9601   0.9924   1.0378   1.0643
     1.1000   1.1175   1.1536   1.1912   1.2287   1.2355   1.2746   1.3247
     1.3505   1.4061   1.4512   1.4789   1.5409   1.5541   1.5867   1.6256
     1.6454   1.6877   1.7154   1.7353   1.7526   1.7868   1.7947   1.8204
     1.8452   1.8593   1.8823   1.9077   1.9152   1.9450   1.9631   1.9900
     1.9991   2.0275   2.0756   2.1214   2.1627   2.1784   2.2578   2.3723

     highest occupied level (ev):     3.1945

!    total energy              =   -2256.28588136 Ry
     estimated scf accuracy    <          4.8E-11 Ry

     The total energy is the sum of the following terms:
     one-electron contribution =    -991.29131754 Ry
     hartree contribution      =     623.75969857 Ry
     xc contribution           =    -647.54383637 Ry
     ewald contribution        =   -1241.21042602 Ry

     convergence has been achieved in  15 iterations

     Forces acting on atoms (cartesian axes, Ry/au):

     atom    1 type  1   force =    -0.00381994    0.00457746   -0.00370863
     atom    2 type  2   force =    -0.00945497   -0.02933774    0.00048287
     atom    3 type  3   force =    -0.00217116   -0.00335053    0.00377112
     atom    4 type  3   force =     0.00063208   -0.00209963   -0.01436402
     atom    5 type  3   force =    -0.00140894    0.01886871   -0.00293157
     atom    6 type  1   force =     0.00188881    0.00222972    0.00166044
     atom    7 type  2   force =    -0.01718601   -0.00359522    0.00154006
     atom    8 type  3   force =    -0.00986352   -0.00108691    0.00369304
     atom    9 type  3   force =     0.00587798    0.01150702    0.01137333
     atom   10 type  3   force =    -0.00429445   -0.00272716    0.00191445
     atom   11 type  1   force =    -0.00851877   -0.01308467   -0.00073804
     atom   12 type  2   force =     0.01581702    0.00739632   -0.00634381
     atom   13 type  3   force =    -0.01221566   -0.00010288   -0.00154437
     atom   14 type  3   force =    -0.00169214    0.00583819    0.01173307
     atom   15 type  3   force =    -0.00241744   -0.00874829   -0.00501884
     atom   16 type  1   force =     0.00979930   -0.00204203    0.00772213
     atom   17 type  2   force =     0.01267927   -0.00648061    0.00046208
     atom   18 type  3   force =    -0.01797479    0.00154371    0.00638174
     atom   19 type  3   force =     0.00976676    0.00091409   -0.00594955
     atom   20 type  3   force =    -0.00776961    0.00928852   -0.00903898
     atom   21 type  1   force =    -0.00241114   -0.00562822   -0.00300197
     atom   22 type  2   force =     0.01269405   -0.00394521   -0.01705054
     atom   23 type  3   force =     0.00862690   -0.00404563   -0.00262979
     atom   24 type  3   force =     0.00155531    0.01306695    0.00684233
     atom   25 type  3   force =    -0.00592133    0.00314290    0.00101442
     atom   26 type  1   force =    -0.00076962   -0.00246034    0.00096577
     atom   27 type  2   force =     0.03318702   -0.00197878    0.00875714
     atom   28 type  3   force =     0.01082735    0.00800205    0.00173661
     atom   29 type  3   force =    -0.00155824    0.00115996    0.00070528
     atom   30 type  3   force =     0.00660248   -0.00881602    0.00189777
     atom   31 type  1   force =    -0.00062107    0.00105709   -0.00317060
     atom   32 type  2   force =     0.00583474    0.00767931    0.00606082
     atom   33 type  3   force =    -0.00824999    0.00207703    0.00168459
     atom   34 type  3   force =     0.00699367    0.00201874    0.00583150
     atom   35 type  3   force =    -0.00125198    0.00237982   -0.00050566
     atom   36 type  1   force =    -0.00621169   -0.00294923    0.00039416
     atom   37 type  2   force =    -0.05359369    0.00373875   -0.00477308
     atom   38 type  3   force =     0.04255898   -0.00306554    0.00146270
     atom   39 type  3   force =     0.00078835   -0.00484769   -0.00330707
     atom   40 type  3   force =    -0.00675389    0.00390599   -0.00401089

     Total force =     0.109830     Total SCF correction =     0.000031


     Computing stress (Cartesian axis) and pressure

          total   stress  (Ry/bohr**3)                   (kbar)     P=       -6.29
  -0.00002887   0.00000375   0.00000608           -4.25        0.55        0.89
   0.00000375  -0.00004511   0.00000227            0.55       -6.64        0.33
   0.00000608   0.00000227  -0.00005433            0.89        0.33       -7.99

 
     init_run     :     20.03s CPU     17.08s WALL (       1 calls)
     electrons    :    202.89s CPU    212.71s WALL (       1 calls)
     forces       :      8.82s CPU      3.95s WALL (       1 calls)
     stress       :     31.62s CPU     31.23s WALL (       1 calls)

     Called by init_run:
     wfcinit      :     12.08s CPU     14.01s WALL (       1 calls)
                                       14.01s GPU  (       1 calls)
     potinit      :      4.58s CPU      1.39s WALL (       1 calls)
     hinit0       :      2.81s CPU      1.00s WALL (       1 calls)

     Called by electrons:
     c_bands      :    121.22s CPU    170.50s WALL (      16 calls)
     sum_band     :     21.97s CPU     20.90s WALL (      16 calls)
                                       20.89s GPU  (      16 calls)
     v_of_rho     :     55.37s CPU     16.59s WALL (      16 calls)
     mix_rho      :      6.51s CPU      4.98s WALL (      16 calls)

     Called by c_bands:
     init_us_2    :      2.47s CPU      3.19s WALL (     280 calls)
                                        3.18s GPU  (     280 calls)
     cegterg      :     80.89s CPU    127.75s WALL (     128 calls)

     Called by *egterg:
     cdiaghg      :     14.24s CPU     25.76s WALL (     659 calls)
                                       25.73s GPU  (     659 calls)
     h_psi        :     54.16s CPU     73.54s WALL (     675 calls)
                                       73.10s GPU  (     675 calls)
     g_psi        :      0.00s CPU      0.36s WALL (     539 calls)
                                        0.35s GPU  (     539 calls)

     Called by h_psi:
     h_psi:calbec :      0.32s CPU      9.93s WALL (     675 calls)
                                        9.92s GPU  (     675 calls)
     vloc_psi     :     39.39s CPU     53.60s WALL (     675 calls)
                                       52.69s GPU  (     675 calls)
     add_vuspsi   :      0.34s CPU      9.93s WALL (     675 calls)
                                        9.92s GPU  (     675 calls)

     General routines
     calbec       :      0.32s CPU      0.39s WALL (     715 calls)
     fft          :     25.93s CPU      6.57s WALL (     185 calls)
                                        0.00s GPU  (       6 calls)
     ffts         :      2.63s CPU      0.68s WALL (      16 calls)
     fftw         :      0.54s CPU     62.13s WALL (   10432 calls)
                                       46.41s GPU  (   10432 calls)
 
     Parallel routines
 
     PWSCF        :   4m24.01s CPU   4m25.71s WALL

 
   This run was terminated on:  21:16:22  22Apr2021            

=------------------------------------------------------------------------------=
   JOB DONE.
=------------------------------------------------------------------------------=
