
     Program PWSCF v.6.7MaX starts on 22Apr2021 at 19:38:11 

     This program is part of the open-source Quantum ESPRESSO suite
     for quantum simulation of materials; please cite
         "P. Giannozzi et al., J. Phys.:Condens. Matter 21 395502 (2009);
         "P. Giannozzi et al., J. Phys.:Condens. Matter 29 465901 (2017);
         "P. Giannozzi et al., J. Chem. Phys. 152 154105 (2020);
          URL http://www.quantum-espresso.org", 
     in publications or presentations arising from this work. More details at
     http://www.quantum-espresso.org/quote

     Parallel version (MPI & OpenMP), running on      16 processor cores
     Number of MPI processes:                 4
     Threads/MPI process:                     4

     MPI processes distributed on     1 nodes
     K-points division:     npool     =       4
     Reading input from ESP_47.pwi
Warning: card &CELL ignored
Warning: card / ignored

     Current dimensions of program PWSCF are:
     Max number of different atomic species (ntypx) = 10
     Max number of k-points (npk) =  40000
     Max angular momentum in pseudopotentials (lmaxx) =  3
     Message from routine read_pp_mesh:
     mesh size missing, using the one in header
     Message from routine read_pp_mesh:
     mesh size missing, using the one in header
     Message from routine read_pp_mesh:
     mesh size missing, using the one in header

     Subspace diagonalization in iterative solution of the eigenvalue problem:
     a serial algorithm will be used

 
     G-vector sticks info
     --------------------
     sticks:   dense  smooth     PW     G-vecs:    dense   smooth      PW
     Sum       12589   12589   3289              1061107  1061107  140905
 
     Using Slab Decomposition
 


     bravais-lattice index     =            0
     lattice parameter (alat)  =      23.7585  a.u.
     unit-cell volume          =   13410.8736 (a.u.)^3
     number of atoms/cell      =           40
     number of atomic types    =            3
     number of electrons       =       352.00
     number of Kohn-Sham states=          176
     kinetic-energy cutoff     =      70.0000  Ry
     charge density cutoff     =     280.0000  Ry
     scf convergence threshold =      1.0E-10
     mixing beta               =       0.7000
     number of iterations used =            8  plain     mixing
     Exchange-correlation= PBESOL
                           (   1   4  10   8   0   0   0)

     GPU acceleration is ACTIVE.


     celldm(1)=  23.758500  celldm(2)=   0.000000  celldm(3)=   0.000000
     celldm(4)=   0.000000  celldm(5)=   0.000000  celldm(6)=   0.000000

     crystal axes: (cart. coord. in units of alat)
               a(1) = (   1.000000   0.000000   0.000000 )  
               a(2) = (   0.000000   1.000000   0.000000 )  
               a(3) = (   0.000000   0.000000   1.000000 )  

     reciprocal axes: (cart. coord. in units 2 pi/alat)
               b(1) = (  1.000000  0.000000  0.000000 )  
               b(2) = (  0.000000  1.000000  0.000000 )  
               b(3) = (  0.000000  0.000000  1.000000 )  


     PseudoPot. # 1 for Cs read from file:
     /m100/home/userexternal/lmonacel/espresso/pseudo/Cs-nc-pbesol.upf
     MD5 check sum: 9d2f2206a14dc5b3b3f3fbfae186bed4
     Pseudo is Norm-conserving + core correction, Zval =  9.0
     Generated using ONCVPSP code by D. R. Hamann
     Using radial grid of 2384 points,  8 beta functions with: 
                l(1) =   0
                l(2) =   0
                l(3) =   1
                l(4) =   1
                l(5) =   2
                l(6) =   2
                l(7) =   3
                l(8) =   3

     PseudoPot. # 2 for Sn read from file:
     /m100/home/userexternal/lmonacel/espresso/pseudo/Sn-nc-pbesol.upf
     MD5 check sum: c2995d571af40102bfea7461443d92cf
     Pseudo is Norm-conserving + core correction, Zval = 14.0
     Generated using ONCVPSP code by D. R. Hamann
     Using radial grid of 1628 points,  6 beta functions with: 
                l(1) =   0
                l(2) =   0
                l(3) =   1
                l(4) =   1
                l(5) =   2
                l(6) =   2

     PseudoPot. # 3 for I  read from file:
     /m100/home/userexternal/lmonacel/espresso/pseudo/I-nc-pbesol.upf
     MD5 check sum: 80ed5ceb2eb9c553cfb6760a299d9c5b
     Pseudo is Norm-conserving + core correction, Zval =  7.0
     Generated using ONCVPSP code by D. R. Hamann
     Using radial grid of 1182 points,  6 beta functions with: 
                l(1) =   0
                l(2) =   0
                l(3) =   1
                l(4) =   1
                l(5) =   2
                l(6) =   2

     atomic species   valence    mass     pseudopotential
        Cs             9.00   132.90545     Cs( 1.00)
        Sn            14.00   118.71000     Sn( 1.00)
        I              7.00   126.90447     I ( 1.00)

     No symmetry found



   Cartesian axes

     site n.     atom                  positions (alat units)
         1           Cs  tau(   1) = (   0.2506757   0.2435376   0.2329447  )
         2           Sn  tau(   2) = (  -0.0245287  -0.0224971  -0.0062005  )
         3           I   tau(   3) = (   0.2408550   0.0035965   0.0385483  )
         4           I   tau(   4) = (  -0.0085298   0.0001968   0.2648849  )
         5           I   tau(   5) = (   0.0013730   0.2513759  -0.0186018  )
         6           Cs  tau(   6) = (   0.2307684   0.2379971   0.7328507  )
         7           Sn  tau(   7) = (   0.0087421  -0.0028354   0.4967467  )
         8           I   tau(   8) = (   0.2281380   0.0192351   0.4993663  )
         9           I   tau(   9) = (   0.0325455  -0.0354290   0.7574056  )
        10           I   tau(  10) = (   0.0293043   0.2501001   0.4935030  )
        11           Cs  tau(  11) = (   0.2798336   0.7647480   0.2823651  )
        12           Sn  tau(  12) = (  -0.0127543   0.4982867  -0.0116331  )
        13           I   tau(  13) = (   0.2587299   0.5257290   0.0006985  )
        14           I   tau(  14) = (   0.0776723   0.4990802   0.2623272  )
        15           I   tau(  15) = (  -0.0011646   0.7523898  -0.0131491  )
        16           Cs  tau(  16) = (   0.2899484   0.7702527   0.7098314  )
        17           Sn  tau(  17) = (   0.0081433   0.5066937   0.4929726  )
        18           I   tau(  18) = (   0.2537912   0.5020691   0.5614294  )
        19           I   tau(  19) = (  -0.0370078   0.4944644   0.7517051  )
        20           I   tau(  20) = (   0.0139058   0.7546444   0.4866217  )
        21           Cs  tau(  21) = (   0.7559222   0.2447447   0.2323861  )
        22           Sn  tau(  22) = (   0.4855108  -0.0142835   0.0135360  )
        23           I   tau(  23) = (   0.7465469   0.0024142  -0.0409860  )
        24           I   tau(  24) = (   0.5268768   0.0111446   0.2602445  )
        25           I   tau(  25) = (   0.4858701   0.2445263  -0.0172749  )
        26           Cs  tau(  26) = (   0.7623735   0.2547159   0.7414826  )
        27           Sn  tau(  27) = (   0.5009168  -0.0042129   0.5070700  )
        28           I   tau(  28) = (   0.7374589   0.0090320   0.5558231  )
        29           I   tau(  29) = (   0.4498540  -0.0144164   0.7693290  )
        30           I   tau(  30) = (   0.5041148   0.2706217   0.4924203  )
        31           Cs  tau(  31) = (   0.7600241   0.7431794   0.2585806  )
        32           Sn  tau(  32) = (   0.4644848   0.4853362   0.0096528  )
        33           I   tau(  33) = (   0.7553771   0.4946793   0.0177270  )
        34           I   tau(  34) = (   0.4551322   0.4741356   0.2565163  )
        35           I   tau(  35) = (   0.4767309   0.7438507   0.0072944  )
        36           Cs  tau(  36) = (   0.7229478   0.7503965   0.7076970  )
        37           Sn  tau(  37) = (   0.5031342   0.4885387   0.5113637  )
        38           I   tau(  38) = (   0.7524954   0.5276508   0.4625629  )
        39           I   tau(  39) = (   0.5292007   0.5152448   0.7539544  )
        40           I   tau(  40) = (   0.4978199   0.7544173   0.4916920  )

     number of k points=    32
                       cart. coord. in units 2pi/alat
        k(    1) = (   0.1250000   0.1250000   0.1250000), wk =   0.0625000
        k(    2) = (   0.1250000   0.1250000   0.3750000), wk =   0.0625000
        k(    3) = (   0.1250000   0.3750000   0.3750000), wk =   0.0625000
        k(    4) = (   0.3750000   0.3750000   0.3750000), wk =   0.0625000
        k(    5) = (  -0.1250000  -0.1250000   0.1250000), wk =   0.0625000
        k(    6) = (  -0.1250000   0.1250000  -0.1250000), wk =   0.0625000
        k(    7) = (   0.1250000  -0.1250000  -0.1250000), wk =   0.0625000
        k(    8) = (  -0.1250000  -0.1250000   0.3750000), wk =   0.0625000
        k(    9) = (  -0.1250000   0.1250000  -0.3750000), wk =   0.0625000
        k(   10) = (   0.1250000  -0.1250000  -0.3750000), wk =   0.0625000
        k(   11) = (   0.3750000  -0.1250000   0.1250000), wk =   0.0625000
        k(   12) = (  -0.3750000  -0.1250000  -0.1250000), wk =   0.0625000
        k(   13) = (   0.3750000   0.1250000  -0.1250000), wk =   0.0625000
        k(   14) = (  -0.3750000   0.1250000   0.1250000), wk =   0.0625000
        k(   15) = (  -0.1250000   0.3750000   0.1250000), wk =   0.0625000
        k(   16) = (  -0.1250000  -0.3750000  -0.1250000), wk =   0.0625000
        k(   17) = (   0.1250000   0.3750000  -0.1250000), wk =   0.0625000
        k(   18) = (   0.1250000  -0.3750000   0.1250000), wk =   0.0625000
        k(   19) = (  -0.1250000  -0.3750000   0.3750000), wk =   0.0625000
        k(   20) = (  -0.1250000   0.3750000  -0.3750000), wk =   0.0625000
        k(   21) = (   0.1250000  -0.3750000  -0.3750000), wk =   0.0625000
        k(   22) = (   0.3750000   0.1250000  -0.3750000), wk =   0.0625000
        k(   23) = (  -0.3750000  -0.1250000  -0.3750000), wk =   0.0625000
        k(   24) = (   0.3750000  -0.1250000   0.3750000), wk =   0.0625000
        k(   25) = (  -0.3750000   0.1250000   0.3750000), wk =   0.0625000
        k(   26) = (   0.3750000  -0.3750000   0.1250000), wk =   0.0625000
        k(   27) = (  -0.3750000  -0.3750000  -0.1250000), wk =   0.0625000
        k(   28) = (   0.3750000   0.3750000  -0.1250000), wk =   0.0625000
        k(   29) = (  -0.3750000   0.3750000   0.1250000), wk =   0.0625000
        k(   30) = (  -0.3750000  -0.3750000   0.3750000), wk =   0.0625000
        k(   31) = (  -0.3750000   0.3750000  -0.3750000), wk =   0.0625000
        k(   32) = (   0.3750000  -0.3750000  -0.3750000), wk =   0.0625000

     Dense  grid:  1061107 G-vectors     FFT dimensions: ( 128, 128, 128)

     Estimated max dynamical RAM per process >       6.82 GB

     Estimated total dynamical RAM >      27.27 GB

     Initial potential from superposition of free atoms

     starting charge  351.69472, renormalised to  352.00000
     Starting wfcs are  208 randomized atomic wfcs

     total cpu time spent up to now is       17.8 secs

     Self-consistent Calculation

     iteration #  1     ecut=    70.00 Ry     beta= 0.70
     Davidson diagonalization with overlap
     ethr =  1.00E-02,  avg # of iterations =  2.0

     Threshold (ethr) on eigenvalues was too large:
     Diagonalizing with lowered threshold

     Davidson diagonalization with overlap
     ethr =  2.11E-04,  avg # of iterations =  4.0

     total cpu time spent up to now is       38.8 secs

     total energy              =   -2256.00812535 Ry
     estimated scf accuracy    <       0.64008101 Ry

     iteration #  2     ecut=    70.00 Ry     beta= 0.70
     Davidson diagonalization with overlap
     ethr =  1.82E-04,  avg # of iterations =  3.3

     total cpu time spent up to now is       51.8 secs

     total energy              =   -2256.19306647 Ry
     estimated scf accuracy    <       0.33207611 Ry

     iteration #  3     ecut=    70.00 Ry     beta= 0.70
     Davidson diagonalization with overlap
     ethr =  9.43E-05,  avg # of iterations =  2.9

     total cpu time spent up to now is       63.6 secs

     total energy              =   -2256.26036111 Ry
     estimated scf accuracy    <       0.02770219 Ry

     iteration #  4     ecut=    70.00 Ry     beta= 0.70
     Davidson diagonalization with overlap
     ethr =  7.87E-06,  avg # of iterations =  3.9

     total cpu time spent up to now is       76.4 secs

     total energy              =   -2256.26923677 Ry
     estimated scf accuracy    <       0.00368610 Ry

     iteration #  5     ecut=    70.00 Ry     beta= 0.70
     Davidson diagonalization with overlap
     ethr =  1.05E-06,  avg # of iterations =  3.3

     total cpu time spent up to now is       88.5 secs

     total energy              =   -2256.26992951 Ry
     estimated scf accuracy    <       0.00074353 Ry

     iteration #  6     ecut=    70.00 Ry     beta= 0.70
     Davidson diagonalization with overlap
     ethr =  2.11E-07,  avg # of iterations =  4.1

     total cpu time spent up to now is      101.8 secs

     total energy              =   -2256.27012168 Ry
     estimated scf accuracy    <       0.00014996 Ry

     iteration #  7     ecut=    70.00 Ry     beta= 0.70
     Davidson diagonalization with overlap
     ethr =  4.26E-08,  avg # of iterations =  3.9

     total cpu time spent up to now is      114.4 secs

     total energy              =   -2256.27015911 Ry
     estimated scf accuracy    <       0.00002377 Ry

     iteration #  8     ecut=    70.00 Ry     beta= 0.70
     Davidson diagonalization with overlap
     ethr =  6.75E-09,  avg # of iterations =  4.1

     total cpu time spent up to now is      128.2 secs

     total energy              =   -2256.27016770 Ry
     estimated scf accuracy    <       0.00000256 Ry

     iteration #  9     ecut=    70.00 Ry     beta= 0.70
     Davidson diagonalization with overlap
     ethr =  7.28E-10,  avg # of iterations =  5.1

     total cpu time spent up to now is      143.5 secs

     total energy              =   -2256.27016902 Ry
     estimated scf accuracy    <       0.00000082 Ry

     iteration # 10     ecut=    70.00 Ry     beta= 0.70
     Davidson diagonalization with overlap
     ethr =  2.33E-10,  avg # of iterations =  3.2

     total cpu time spent up to now is      157.0 secs

     total energy              =   -2256.27016924 Ry
     estimated scf accuracy    <       0.00000014 Ry

     iteration # 11     ecut=    70.00 Ry     beta= 0.70
     Davidson diagonalization with overlap
     ethr =  3.99E-11,  avg # of iterations =  5.2

     total cpu time spent up to now is      173.0 secs

     total energy              =   -2256.27016934 Ry
     estimated scf accuracy    <       0.00000003 Ry

     iteration # 12     ecut=    70.00 Ry     beta= 0.70
     Davidson diagonalization with overlap
     ethr =  8.50E-12,  avg # of iterations =  3.3

     total cpu time spent up to now is      187.2 secs

     total energy              =   -2256.27016935 Ry
     estimated scf accuracy    <       0.00000001 Ry

     iteration # 13     ecut=    70.00 Ry     beta= 0.70
     Davidson diagonalization with overlap
     ethr =  4.24E-12,  avg # of iterations =  3.9

     total cpu time spent up to now is      199.8 secs

     total energy              =   -2256.27016935 Ry
     estimated scf accuracy    <          9.2E-10 Ry

     iteration # 14     ecut=    70.00 Ry     beta= 0.70
     Davidson diagonalization with overlap
     ethr =  2.61E-13,  avg # of iterations =  7.2

     total cpu time spent up to now is      219.2 secs

     total energy              =   -2256.27016935 Ry
     estimated scf accuracy    <          2.6E-10 Ry

     iteration # 15     ecut=    70.00 Ry     beta= 0.70
     Davidson diagonalization with overlap
     ethr =  1.00E-13,  avg # of iterations =  2.3

     total cpu time spent up to now is      230.6 secs

     End of self-consistent calculation

          k = 0.1250 0.1250 0.1250 (132670 PWs)   bands (ev):

   -18.6226 -18.5933 -18.5158 -18.5087 -18.5037 -18.5011 -18.4971 -18.3861
   -18.3741 -18.3352 -18.2777 -18.2233 -18.2226 -18.2156 -18.2023 -18.1987
   -18.1927 -18.1894 -18.1876 -18.1858 -18.1770 -18.1728 -18.1712 -18.1674
   -18.1629 -18.1534 -18.1514 -18.1472 -18.1207 -18.1164 -18.1027 -18.1000
   -18.0996 -18.0976 -18.0924 -18.0912 -18.0899 -18.0821 -18.0740 -18.0720
   -18.0665 -18.0633 -18.0572 -18.0561 -18.0247 -18.0136 -17.9971 -17.9946
    -9.6141  -9.5157  -9.4631  -9.3956  -9.2311  -9.1855  -9.1253  -9.0860
    -9.0214  -8.9875  -8.9363  -8.9113  -8.8952  -8.8586  -8.8123  -8.7688
    -8.7262  -8.7099  -8.6880  -8.6595  -8.6387  -8.6143  -8.5521  -8.5021
    -5.3816  -5.3710  -5.3641  -5.3596  -5.3571  -5.3467  -5.1831  -5.1625
    -5.1574  -5.1524  -5.1491  -5.1381  -5.1205  -5.1165  -5.1025  -5.0694
    -5.0551  -5.0373  -4.9568  -4.9499  -4.9337  -4.9188  -4.9140  -4.9032
    -4.4084  -3.9636  -3.9113  -3.8084  -3.4360  -3.3518  -3.3038  -2.8085
    -0.8368  -0.7520  -0.6371  -0.5991  -0.5803  -0.5052  -0.4701  -0.4011
    -0.3327  -0.2674  -0.1967  -0.1112   0.3375   0.4286   0.4415   0.6058
     0.6321   0.6506   0.6759   0.6961   0.7130   0.7883   0.8497   0.8840
     0.9149   0.9679   0.9971   1.0500   1.0653   1.1105   1.1356   1.1720
     1.1854   1.2154   1.2191   1.2365   1.2793   1.3101   1.3435   1.3667
     1.4091   1.4262   1.4431   1.4715   1.5144   1.5248   1.5488   1.5630
     1.5932   1.6238   1.6474   1.6732   1.6800   1.7046   1.7240   1.7537
     1.7582   1.7814   1.8474   1.8929   1.9303   2.0230   2.0367   2.0837
     2.1418   2.1893   2.2960   2.3364   2.5687   2.7133   2.8289   3.1874

          k = 0.1250 0.1250 0.3750 (132608 PWs)   bands (ev):

   -18.6226 -18.5933 -18.5158 -18.5087 -18.5037 -18.5011 -18.4971 -18.3861
   -18.3741 -18.3352 -18.2777 -18.2233 -18.2226 -18.2156 -18.2023 -18.1987
   -18.1927 -18.1894 -18.1876 -18.1858 -18.1770 -18.1728 -18.1712 -18.1674
   -18.1629 -18.1534 -18.1514 -18.1472 -18.1207 -18.1164 -18.1027 -18.1000
   -18.0996 -18.0976 -18.0924 -18.0912 -18.0899 -18.0821 -18.0740 -18.0720
   -18.0665 -18.0633 -18.0572 -18.0561 -18.0247 -18.0136 -17.9971 -17.9946
    -9.6109  -9.5042  -9.4757  -9.3956  -9.2346  -9.1804  -9.1369  -9.1038
    -9.0081  -8.9774  -8.9379  -8.9148  -8.8914  -8.8636  -8.8123  -8.7643
    -8.7283  -8.6889  -8.6784  -8.6609  -8.6476  -8.6187  -8.5608  -8.5028
    -5.3815  -5.3709  -5.3641  -5.3596  -5.3569  -5.3467  -5.1827  -5.1627
    -5.1574  -5.1524  -5.1492  -5.1381  -5.1207  -5.1168  -5.1027  -5.0695
    -5.0551  -5.0374  -4.9556  -4.9508  -4.9340  -4.9186  -4.9139  -4.9034
    -4.3093  -4.0666  -3.8369  -3.7134  -3.5698  -3.4913  -3.2158  -2.9638
    -0.8260  -0.7372  -0.5900  -0.5788  -0.4893  -0.4564  -0.3583  -0.3082
    -0.1170  -0.0455  -0.0106   0.0976   0.3315   0.3617   0.4063   0.4474
     0.5241   0.5387   0.6045   0.6557   0.6805   0.7013   0.7748   0.8289
     0.8480   0.8758   0.9374   0.9768   1.0423   1.0658   1.0962   1.1225
     1.1467   1.1738   1.2260   1.2512   1.2968   1.3260   1.3505   1.3868
     1.4087   1.4419   1.4664   1.4911   1.5149   1.5305   1.5526   1.5759
     1.6169   1.6414   1.6680   1.6917   1.7150   1.7174   1.7437   1.7628
     1.7873   1.7977   1.8461   1.8740   1.8994   1.9377   1.9664   2.0236
     2.0624   2.1814   2.2417   2.3499   2.4202   2.5549   2.7425   2.9798

          k = 0.1250 0.3750 0.3750 (132616 PWs)   bands (ev):

   -18.6226 -18.5933 -18.5158 -18.5087 -18.5037 -18.5011 -18.4971 -18.3861
   -18.3741 -18.3352 -18.2777 -18.2233 -18.2226 -18.2156 -18.2023 -18.1987
   -18.1927 -18.1894 -18.1876 -18.1858 -18.1770 -18.1728 -18.1712 -18.1674
   -18.1628 -18.1534 -18.1514 -18.1472 -18.1207 -18.1164 -18.1027 -18.1000
   -18.0996 -18.0976 -18.0924 -18.0911 -18.0899 -18.0821 -18.0740 -18.0720
   -18.0665 -18.0633 -18.0572 -18.0561 -18.0247 -18.0136 -17.9971 -17.9946
    -9.6048  -9.4987  -9.4659  -9.4254  -9.2342  -9.1688  -9.1445  -9.0971
    -9.0185  -8.9866  -8.9462  -8.9081  -8.8965  -8.8490  -8.8109  -8.7545
    -8.7198  -8.6937  -8.6792  -8.6541  -8.6417  -8.6240  -8.5660  -8.5103
    -5.3816  -5.3708  -5.3642  -5.3594  -5.3569  -5.3466  -5.1828  -5.1624
    -5.1567  -5.1520  -5.1495  -5.1381  -5.1210  -5.1167  -5.1027  -5.0695
    -5.0557  -5.0359  -4.9560  -4.9498  -4.9343  -4.9197  -4.9137  -4.9028
    -4.1893  -3.9797  -3.8862  -3.7019  -3.6601  -3.4807  -3.3738  -3.1432
    -0.6729  -0.5305  -0.4614  -0.4449  -0.4073  -0.2799  -0.1979  -0.1565
    -0.0947   0.0195   0.0914   0.1645   0.1879   0.3136   0.3931   0.4204
     0.4780   0.5119   0.5489   0.5838   0.6173   0.6600   0.7006   0.7406
     0.8191   0.8665   0.8961   0.9365   0.9602   0.9982   1.0466   1.0801
     1.1067   1.1582   1.1915   1.2275   1.2394   1.2669   1.3021   1.3694
     1.3929   1.4123   1.4449   1.4909   1.5069   1.5343   1.5553   1.5737
     1.6354   1.6545   1.6685   1.6958   1.7062   1.7357   1.7791   1.7874
     1.8216   1.8343   1.8581   1.8659   1.9036   1.9319   1.9616   2.0076
     2.0503   2.0909   2.1662   2.2043   2.3135   2.4308   2.5340   2.6754

          k = 0.3750 0.3750 0.3750 (132612 PWs)   bands (ev):

   -18.6226 -18.5933 -18.5158 -18.5087 -18.5037 -18.5011 -18.4971 -18.3861
   -18.3741 -18.3352 -18.2777 -18.2233 -18.2227 -18.2156 -18.2023 -18.1987
   -18.1927 -18.1894 -18.1876 -18.1858 -18.1770 -18.1728 -18.1712 -18.1674
   -18.1628 -18.1534 -18.1514 -18.1472 -18.1207 -18.1164 -18.1027 -18.1000
   -18.0996 -18.0976 -18.0924 -18.0911 -18.0899 -18.0821 -18.0740 -18.0720
   -18.0665 -18.0633 -18.0572 -18.0561 -18.0247 -18.0136 -17.9971 -17.9946
    -9.6001  -9.4977  -9.4673  -9.4298  -9.2269  -9.1766  -9.1449  -9.1022
    -9.0219  -8.9886  -8.9542  -8.9048  -8.8930  -8.8537  -8.7882  -8.7498
    -8.7203  -8.6921  -8.6811  -8.6569  -8.6442  -8.6247  -8.5655  -8.5136
    -5.3816  -5.3708  -5.3643  -5.3594  -5.3570  -5.3467  -5.1828  -5.1625
    -5.1568  -5.1522  -5.1487  -5.1383  -5.1209  -5.1169  -5.1029  -5.0695
    -5.0556  -5.0360  -4.9559  -4.9495  -4.9340  -4.9195  -4.9138  -4.9027
    -4.0924  -3.9077  -3.8475  -3.7631  -3.6102  -3.5743  -3.5016  -3.2814
    -0.5095  -0.4466  -0.3046  -0.2848  -0.2797  -0.2514  -0.1637  -0.0855
    -0.0094   0.0454   0.0762   0.1591   0.2352   0.2982   0.3305   0.3627
     0.4338   0.4898   0.5275   0.5622   0.5897   0.6225   0.6487   0.7324
     0.8416   0.8688   0.8867   0.9379   0.9390   0.9734   1.0088   1.0621
     1.0902   1.1293   1.1469   1.1865   1.2188   1.2397   1.2900   1.3237
     1.3308   1.3979   1.4331   1.4451   1.4892   1.5372   1.5620   1.5756
     1.6038   1.6422   1.6653   1.6882   1.7272   1.7463   1.8001   1.8157
     1.8310   1.8614   1.8795   1.8877   1.9083   1.9287   1.9630   1.9933
     2.0071   2.0565   2.0979   2.1627   2.1931   2.2936   2.3396   2.4253

          k =-0.1250-0.1250 0.1250 (132670 PWs)   bands (ev):

   -18.6226 -18.5933 -18.5158 -18.5087 -18.5037 -18.5011 -18.4971 -18.3861
   -18.3741 -18.3352 -18.2777 -18.2233 -18.2226 -18.2156 -18.2023 -18.1987
   -18.1927 -18.1894 -18.1876 -18.1858 -18.1770 -18.1728 -18.1712 -18.1674
   -18.1629 -18.1534 -18.1514 -18.1472 -18.1207 -18.1164 -18.1027 -18.1000
   -18.0996 -18.0976 -18.0924 -18.0912 -18.0899 -18.0821 -18.0740 -18.0720
   -18.0665 -18.0633 -18.0572 -18.0561 -18.0247 -18.0136 -17.9971 -17.9946
    -9.6140  -9.5160  -9.4631  -9.3951  -9.2312  -9.1860  -9.1268  -9.0828
    -9.0221  -8.9910  -8.9313  -8.9134  -8.8965  -8.8554  -8.8153  -8.7673
    -8.7302  -8.7077  -8.6849  -8.6585  -8.6417  -8.6145  -8.5519  -8.5019
    -5.3816  -5.3710  -5.3641  -5.3596  -5.3570  -5.3467  -5.1833  -5.1624
    -5.1573  -5.1524  -5.1490  -5.1380  -5.1205  -5.1166  -5.1025  -5.0693
    -5.0551  -5.0374  -4.9562  -4.9505  -4.9337  -4.9189  -4.9140  -4.9032
    -4.4081  -3.9671  -3.9054  -3.8117  -3.4306  -3.3500  -3.3119  -2.8067
    -0.8342  -0.7363  -0.6420  -0.6156  -0.5758  -0.5221  -0.4456  -0.4092
    -0.3272  -0.2885  -0.1971  -0.1016   0.3363   0.4327   0.4475   0.5912
     0.6383   0.6473   0.6673   0.6852   0.7309   0.8045   0.8604   0.8960
     0.9173   0.9397   1.0031   1.0387   1.0723   1.1176   1.1332   1.1634
     1.1886   1.1914   1.2290   1.2492   1.2859   1.3023   1.3336   1.3566
     1.4007   1.4434   1.4656   1.4812   1.5122   1.5270   1.5428   1.5639
     1.5984   1.6325   1.6467   1.6590   1.6851   1.7038   1.7257   1.7439
     1.7576   1.7860   1.8486   1.8981   1.9323   2.0083   2.0356   2.0721
     2.1345   2.1877   2.2703   2.3538   2.5836   2.7086   2.8419   3.1783

          k =-0.1250 0.1250-0.1250 (132670 PWs)   bands (ev):

   -18.6226 -18.5933 -18.5158 -18.5087 -18.5037 -18.5011 -18.4971 -18.3861
   -18.3741 -18.3352 -18.2777 -18.2233 -18.2226 -18.2156 -18.2023 -18.1987
   -18.1927 -18.1894 -18.1876 -18.1858 -18.1770 -18.1728 -18.1712 -18.1674
   -18.1629 -18.1534 -18.1514 -18.1472 -18.1207 -18.1164 -18.1027 -18.1000
   -18.0996 -18.0976 -18.0924 -18.0912 -18.0899 -18.0821 -18.0740 -18.0720
   -18.0665 -18.0633 -18.0572 -18.0561 -18.0247 -18.0136 -17.9971 -17.9946
    -9.6142  -9.5154  -9.4631  -9.3954  -9.2327  -9.1867  -9.1247  -9.0838
    -9.0185  -8.9898  -8.9343  -8.9144  -8.8963  -8.8572  -8.8133  -8.7684
    -8.7259  -8.7115  -8.6871  -8.6575  -8.6400  -8.6148  -8.5513  -8.5026
    -5.3816  -5.3710  -5.3641  -5.3596  -5.3570  -5.3467  -5.1831  -5.1625
    -5.1573  -5.1525  -5.1491  -5.1381  -5.1205  -5.1164  -5.1025  -5.0694
    -5.0551  -5.0375  -4.9561  -4.9505  -4.9336  -4.9189  -4.9140  -4.9033
    -4.4083  -3.9651  -3.9073  -3.8103  -3.4515  -3.3385  -3.3013  -2.8091
    -0.8331  -0.7525  -0.6491  -0.6128  -0.5632  -0.5121  -0.4777  -0.4030
    -0.3340  -0.2400  -0.1938  -0.1115   0.3429   0.4337   0.4456   0.5974
     0.6153   0.6528   0.6720   0.6860   0.7190   0.7909   0.8544   0.8746
     0.9284   0.9659   1.0060   1.0452   1.0681   1.1042   1.1232   1.1556
     1.1846   1.2009   1.2152   1.2540   1.2900   1.3228   1.3405   1.3641
     1.3884   1.4487   1.4693   1.4805   1.5138   1.5219   1.5304   1.5746
     1.5919   1.6262   1.6485   1.6530   1.6696   1.7095   1.7257   1.7476
     1.7700   1.8064   1.8415   1.8978   1.9236   2.0149   2.0300   2.0835
     2.1342   2.1874   2.2961   2.3273   2.5751   2.7162   2.8452   3.1850

          k = 0.1250-0.1250-0.1250 (132670 PWs)   bands (ev):

   -18.6226 -18.5933 -18.5158 -18.5087 -18.5037 -18.5011 -18.4971 -18.3861
   -18.3741 -18.3352 -18.2777 -18.2233 -18.2226 -18.2156 -18.2023 -18.1987
   -18.1927 -18.1894 -18.1876 -18.1858 -18.1770 -18.1728 -18.1712 -18.1674
   -18.1629 -18.1534 -18.1514 -18.1472 -18.1207 -18.1164 -18.1027 -18.1000
   -18.0996 -18.0976 -18.0924 -18.0912 -18.0899 -18.0821 -18.0740 -18.0720
   -18.0665 -18.0633 -18.0572 -18.0561 -18.0247 -18.0136 -17.9971 -17.9946
    -9.6143  -9.5153  -9.4628  -9.3960  -9.2332  -9.1828  -9.1299  -9.0813
    -9.0193  -8.9939  -8.9300  -8.9149  -8.8921  -8.8586  -8.8140  -8.7691
    -8.7290  -8.7088  -8.6913  -8.6530  -8.6405  -8.6143  -8.5515  -8.5028
    -5.3816  -5.3710  -5.3641  -5.3596  -5.3571  -5.3467  -5.1833  -5.1624
    -5.1573  -5.1524  -5.1489  -5.1381  -5.1205  -5.1166  -5.1025  -5.0695
    -5.0551  -5.0373  -4.9569  -4.9499  -4.9337  -4.9188  -4.9140  -4.9033
    -4.4075  -3.9634  -3.9126  -3.8065  -3.4518  -3.3410  -3.3007  -2.8067
    -0.8427  -0.7397  -0.6506  -0.6046  -0.5834  -0.5201  -0.4496  -0.4220
    -0.3334  -0.2364  -0.2090  -0.0876   0.3432   0.4237   0.4435   0.6006
     0.6250   0.6564   0.6753   0.6928   0.7042   0.7958   0.8587   0.8954
     0.9110   0.9435   1.0040   1.0563   1.0855   1.1006   1.1269   1.1651
     1.1882   1.2053   1.2123   1.2358   1.2892   1.3149   1.3306   1.3747
     1.3839   1.4504   1.4663   1.4812   1.4995   1.5162   1.5419   1.5570
     1.6030   1.6093   1.6299   1.6598   1.6838   1.7125   1.7252   1.7446
     1.7606   1.8138   1.8479   1.8979   1.9304   2.0229   2.0309   2.0739
     2.1425   2.1841   2.3040   2.3376   2.5857   2.7073   2.8273   3.1972

          k =-0.1250-0.1250 0.3750 (132608 PWs)   bands (ev):

   -18.6226 -18.5933 -18.5158 -18.5087 -18.5037 -18.5011 -18.4971 -18.3861
   -18.3741 -18.3352 -18.2777 -18.2233 -18.2226 -18.2156 -18.2023 -18.1987
   -18.1927 -18.1894 -18.1876 -18.1858 -18.1770 -18.1728 -18.1712 -18.1674
   -18.1629 -18.1534 -18.1514 -18.1472 -18.1207 -18.1164 -18.1027 -18.1000
   -18.0996 -18.0976 -18.0924 -18.0912 -18.0899 -18.0821 -18.0740 -18.0720
   -18.0665 -18.0633 -18.0572 -18.0561 -18.0247 -18.0136 -17.9971 -17.9946
    -9.6109  -9.5048  -9.4755  -9.3951  -9.2346  -9.1806  -9.1391  -9.1007
    -9.0079  -8.9823  -8.9316  -8.9171  -8.8926  -8.8608  -8.8150  -8.7630
    -8.7304  -8.6881  -8.6748  -8.6600  -8.6506  -8.6200  -8.5605  -8.5026
    -5.3815  -5.3709  -5.3641  -5.3596  -5.3568  -5.3467  -5.1830  -5.1625
    -5.1573  -5.1524  -5.1491  -5.1381  -5.1207  -5.1169  -5.1027  -5.0694
    -5.0551  -5.0375  -4.9545  -4.9518  -4.9340  -4.9187  -4.9139  -4.9034
    -4.3089  -4.0670  -3.8339  -3.7219  -3.5589  -3.4936  -3.2226  -2.9598
    -0.8249  -0.7306  -0.5983  -0.5774  -0.5020  -0.4402  -0.3481  -0.3033
    -0.1429  -0.0666  -0.0196   0.1111   0.3418   0.3794   0.4210   0.4516
     0.4966   0.5535   0.6169   0.6331   0.6681   0.7078   0.7718   0.8338
     0.8613   0.8785   0.9414   0.9802   1.0391   1.0647   1.0968   1.1095
     1.1393   1.1802   1.2183   1.2403   1.3128   1.3201   1.3498   1.3831
     1.4221   1.4390   1.4717   1.4891   1.5228   1.5376   1.5624   1.5767
     1.6078   1.6435   1.6660   1.6912   1.7059   1.7260   1.7442   1.7558
     1.7853   1.8060   1.8502   1.8858   1.9035   1.9297   1.9638   1.9916
     2.0505   2.1791   2.2238   2.3767   2.4158   2.5665   2.7439   2.9779

          k =-0.1250 0.1250-0.3750 (132608 PWs)   bands (ev):

   -18.6226 -18.5933 -18.5158 -18.5087 -18.5037 -18.5011 -18.4971 -18.3861
   -18.3741 -18.3352 -18.2777 -18.2233 -18.2226 -18.2156 -18.2023 -18.1987
   -18.1927 -18.1894 -18.1876 -18.1858 -18.1770 -18.1728 -18.1712 -18.1674
   -18.1629 -18.1534 -18.1514 -18.1472 -18.1207 -18.1164 -18.1027 -18.1000
   -18.0996 -18.0976 -18.0924 -18.0912 -18.0899 -18.0821 -18.0740 -18.0720
   -18.0665 -18.0633 -18.0572 -18.0561 -18.0247 -18.0136 -17.9971 -17.9946
    -9.6111  -9.5041  -9.4753  -9.3954  -9.2359  -9.1838  -9.1357  -9.0996
    -9.0051  -8.9807  -8.9356  -8.9176  -8.8946  -8.8609  -8.8127  -8.7642
    -8.7284  -8.6914  -8.6733  -8.6621  -8.6489  -8.6193  -8.5597  -8.5032
    -5.3815  -5.3710  -5.3640  -5.3596  -5.3568  -5.3467  -5.1827  -5.1627
    -5.1573  -5.1526  -5.1491  -5.1381  -5.1207  -5.1167  -5.1027  -5.0694
    -5.0551  -5.0375  -4.9545  -4.9518  -4.9339  -4.9186  -4.9139  -4.9034
    -4.3101  -4.0635  -3.8314  -3.7214  -3.5947  -3.4636  -3.2172  -2.9647
    -0.8226  -0.7415  -0.6056  -0.5794  -0.5081  -0.4274  -0.3576  -0.2945
    -0.1147  -0.0626  -0.0016   0.0909   0.3416   0.3796   0.4184   0.4391
     0.5230   0.5422   0.5923   0.6320   0.6709   0.7021   0.7867   0.8269
     0.8465   0.8933   0.9247   0.9934   1.0184   1.0625   1.0912   1.1107
     1.1661   1.1871   1.2139   1.2425   1.3146   1.3276   1.3531   1.3955
     1.4098   1.4352   1.4658   1.4861   1.5137   1.5331   1.5448   1.5814
     1.6007   1.6486   1.6653   1.6808   1.7040   1.7307   1.7587   1.7727
     1.7929   1.8087   1.8534   1.8696   1.9049   1.9255   1.9510   2.0207
     2.0505   2.1839   2.2399   2.3344   2.4218   2.5840   2.7509   2.9728

          k = 0.1250-0.1250-0.3750 (132608 PWs)   bands (ev):

   -18.6226 -18.5933 -18.5158 -18.5087 -18.5037 -18.5011 -18.4971 -18.3861
   -18.3741 -18.3352 -18.2777 -18.2233 -18.2226 -18.2156 -18.2023 -18.1987
   -18.1927 -18.1894 -18.1876 -18.1858 -18.1770 -18.1728 -18.1712 -18.1674
   -18.1629 -18.1534 -18.1514 -18.1472 -18.1207 -18.1164 -18.1027 -18.1000
   -18.0996 -18.0976 -18.0924 -18.0912 -18.0899 -18.0821 -18.0740 -18.0720
   -18.0665 -18.0633 -18.0572 -18.0561 -18.0247 -18.0136 -17.9971 -17.9946
    -9.6112  -9.5039  -9.4751  -9.3960  -9.2364  -9.1778  -9.1438  -9.0964
    -9.0058  -8.9856  -8.9298  -8.9186  -8.8901  -8.8631  -8.8136  -8.7641
    -8.7303  -8.6894  -8.6821  -8.6563  -8.6465  -8.6193  -8.5602  -8.5034
    -5.3815  -5.3709  -5.3641  -5.3596  -5.3569  -5.3467  -5.1829  -5.1626
    -5.1573  -5.1525  -5.1490  -5.1381  -5.1207  -5.1168  -5.1027  -5.0696
    -5.0551  -5.0374  -4.9556  -4.9508  -4.9340  -4.9185  -4.9139  -4.9035
    -4.3087  -4.0648  -3.8319  -3.7246  -3.5820  -3.4745  -3.2180  -2.9611
    -0.8283  -0.7361  -0.6054  -0.5774  -0.5220  -0.4207  -0.3417  -0.3072
    -0.1410  -0.0461  -0.0068   0.1162   0.3391   0.3625   0.4233   0.4559
     0.5061   0.5402   0.6166   0.6437   0.6719   0.6917   0.7805   0.8232
     0.8514   0.8981   0.9319   0.9653   1.0234   1.0603   1.1032   1.1244
     1.1501   1.1764   1.2148   1.2619   1.2894   1.3250   1.3499   1.3812
     1.4137   1.4479   1.4749   1.4842   1.5128   1.5309   1.5467   1.5928
     1.6043   1.6294   1.6549   1.6763   1.7148   1.7282   1.7460   1.7702
     1.7845   1.8102   1.8452   1.8790   1.9081   1.9397   1.9734   2.0074
     2.0579   2.1751   2.2344   2.3699   2.4353   2.5505   2.7429   2.9831

          k = 0.3750-0.1250 0.1250 (132608 PWs)   bands (ev):

   -18.6226 -18.5933 -18.5158 -18.5087 -18.5037 -18.5011 -18.4971 -18.3861
   -18.3741 -18.3352 -18.2777 -18.2233 -18.2227 -18.2156 -18.2023 -18.1987
   -18.1927 -18.1894 -18.1876 -18.1858 -18.1770 -18.1728 -18.1712 -18.1674
   -18.1628 -18.1534 -18.1514 -18.1472 -18.1207 -18.1164 -18.1027 -18.1000
   -18.0996 -18.0976 -18.0924 -18.0912 -18.0899 -18.0821 -18.0740 -18.0720
   -18.0665 -18.0633 -18.0572 -18.0561 -18.0247 -18.0136 -17.9971 -17.9945
    -9.6073  -9.5181  -9.4672  -9.3964  -9.2341  -9.1829  -9.1293  -9.0825
    -9.0209  -8.9995  -8.9370  -8.9093  -8.8900  -8.8704  -8.7938  -8.7673
    -8.7260  -8.7018  -8.6903  -8.6553  -8.6385  -8.6226  -8.5496  -8.5085
    -5.3816  -5.3710  -5.3641  -5.3595  -5.3571  -5.3467  -5.1827  -5.1627
    -5.1571  -5.1524  -5.1485  -5.1382  -5.1207  -5.1170  -5.1025  -5.0695
    -5.0554  -5.0376  -4.9561  -4.9502  -4.9336  -4.9187  -4.9142  -4.9033
    -4.3035  -4.0744  -3.8373  -3.7139  -3.5860  -3.4659  -3.2057  -2.9808
    -0.8408  -0.7115  -0.6298  -0.5847  -0.5463  -0.4461  -0.4222  -0.2850
    -0.1286  -0.0337   0.1123   0.1531   0.2773   0.4075   0.4500   0.4913
     0.5282   0.5532   0.5899   0.6299   0.6457   0.6644   0.7711   0.7907
     0.8738   0.9151   0.9626   1.0166   1.0337   1.0643   1.0982   1.1123
     1.1569   1.1883   1.2038   1.2539   1.3211   1.3298   1.3371   1.3826
     1.4072   1.4267   1.4775   1.4868   1.4941   1.5153   1.5347   1.5677
     1.5726   1.6069   1.6374   1.6552   1.6765   1.7092   1.7547   1.7744
     1.7942   1.8162   1.8579   1.9002   1.9124   1.9796   2.0141   2.0300
     2.0924   2.1360   2.2433   2.3054   2.4392   2.5090   2.8078   2.9491

          k =-0.3750-0.1250-0.1250 (132608 PWs)   bands (ev):

   -18.6226 -18.5933 -18.5158 -18.5087 -18.5037 -18.5011 -18.4971 -18.3861
   -18.3741 -18.3352 -18.2777 -18.2233 -18.2227 -18.2156 -18.2023 -18.1987
   -18.1927 -18.1894 -18.1876 -18.1858 -18.1770 -18.1728 -18.1712 -18.1674
   -18.1628 -18.1534 -18.1514 -18.1472 -18.1207 -18.1164 -18.1027 -18.1000
   -18.0996 -18.0976 -18.0924 -18.0912 -18.0899 -18.0821 -18.0740 -18.0720
   -18.0665 -18.0633 -18.0572 -18.0561 -18.0247 -18.0136 -17.9971 -17.9946
    -9.6071  -9.5186  -9.4670  -9.3967  -9.2323  -9.1825  -9.1284  -9.0864
    -9.0226  -8.9975  -8.9372  -8.9060  -8.8936  -8.8695  -8.7914  -8.7684
    -8.7276  -8.7005  -8.6886  -8.6584  -8.6385  -8.6213  -8.5504  -8.5079
    -5.3815  -5.3709  -5.3641  -5.3595  -5.3571  -5.3467  -5.1828  -5.1627
    -5.1572  -5.1523  -5.1485  -5.1382  -5.1207  -5.1170  -5.1026  -5.0696
    -5.0554  -5.0374  -4.9568  -4.9496  -4.9336  -4.9187  -4.9143  -4.9032
    -4.3041  -4.0722  -3.8416  -3.7177  -3.5746  -3.4649  -3.2146  -2.9784
    -0.8442  -0.7118  -0.6240  -0.5726  -0.5422  -0.4459  -0.4259  -0.2933
    -0.1173  -0.0366   0.0938   0.1250   0.2645   0.3905   0.4495   0.5093
     0.5535   0.5875   0.6045   0.6382   0.6533   0.6632   0.7481   0.7980
     0.8721   0.9073   0.9620   0.9909   1.0186   1.0655   1.1041   1.1326
     1.1626   1.1915   1.2286   1.2678   1.2865   1.3051   1.3557   1.3775
     1.4150   1.4224   1.4304   1.4774   1.4974   1.5111   1.5539   1.5623
     1.5773   1.6188   1.6301   1.6693   1.6892   1.7140   1.7600   1.7704
     1.7768   1.8313   1.8522   1.8849   1.9113   1.9800   2.0075   2.0398
     2.0934   2.1553   2.2512   2.3055   2.4276   2.5203   2.7948   2.9389

          k = 0.3750 0.1250-0.1250 (132608 PWs)   bands (ev):

   -18.6226 -18.5933 -18.5158 -18.5087 -18.5037 -18.5011 -18.4971 -18.3861
   -18.3741 -18.3352 -18.2777 -18.2233 -18.2227 -18.2156 -18.2023 -18.1987
   -18.1927 -18.1894 -18.1876 -18.1858 -18.1770 -18.1728 -18.1712 -18.1674
   -18.1628 -18.1534 -18.1514 -18.1472 -18.1207 -18.1164 -18.1027 -18.1000
   -18.0996 -18.0976 -18.0924 -18.0912 -18.0899 -18.0821 -18.0740 -18.0720
   -18.0665 -18.0633 -18.0572 -18.0561 -18.0247 -18.0136 -17.9971 -17.9946
    -9.6070  -9.5189  -9.4671  -9.3961  -9.2327  -9.1818  -9.1314  -9.0816
    -9.0248  -9.0001  -8.9344  -8.9069  -8.8928  -8.8683  -8.7951  -8.7659
    -8.7295  -8.6988  -8.6884  -8.6563  -8.6404  -8.6222  -8.5505  -8.5077
    -5.3816  -5.3709  -5.3641  -5.3595  -5.3571  -5.3467  -5.1830  -5.1626
    -5.1571  -5.1523  -5.1484  -5.1381  -5.1207  -5.1171  -5.1026  -5.0695
    -5.0554  -5.0375  -4.9561  -4.9502  -4.9336  -4.9188  -4.9142  -4.9032
    -4.3034  -4.0744  -3.8396  -3.7179  -3.5689  -3.4700  -3.2193  -2.9742
    -0.8404  -0.7054  -0.6237  -0.5775  -0.5538  -0.4539  -0.3987  -0.3069
    -0.1377  -0.0321   0.0917   0.1404   0.2702   0.3810   0.4508   0.5108
     0.5452   0.5790   0.6078   0.6368   0.6592   0.6902   0.7594   0.7770
     0.8612   0.9063   0.9603   1.0038   1.0422   1.0559   1.0882   1.1298
     1.1566   1.1949   1.2164   1.2742   1.2975   1.3134   1.3427   1.3751
     1.4268   1.4293   1.4554   1.4721   1.4895   1.5168   1.5372   1.5573
     1.5835   1.6260   1.6310   1.6748   1.6856   1.7106   1.7514   1.7648
     1.7909   1.8322   1.8475   1.8791   1.9194   1.9684   2.0054   2.0369
     2.0937   2.1397   2.2139   2.3464   2.4304   2.5083   2.8038   2.9468

          k =-0.3750 0.1250 0.1250 (132608 PWs)   bands (ev):

   -18.6226 -18.5933 -18.5158 -18.5087 -18.5037 -18.5011 -18.4971 -18.3861
   -18.3741 -18.3352 -18.2777 -18.2233 -18.2227 -18.2156 -18.2023 -18.1987
   -18.1927 -18.1894 -18.1876 -18.1858 -18.1770 -18.1728 -18.1712 -18.1674
   -18.1628 -18.1534 -18.1514 -18.1472 -18.1207 -18.1164 -18.1027 -18.1000
   -18.0996 -18.0976 -18.0924 -18.0912 -18.0899 -18.0821 -18.0740 -18.0720
   -18.0665 -18.0633 -18.0572 -18.0561 -18.0247 -18.0136 -17.9971 -17.9945
    -9.6073  -9.5181  -9.4668  -9.3970  -9.2343  -9.1797  -9.1329  -9.0815
    -9.0209  -9.0034  -8.9319  -8.9089  -8.8894  -8.8717  -8.7919  -8.7687
    -8.7300  -8.6985  -8.6942  -8.6509  -8.6404  -8.6217  -8.5498  -8.5088
    -5.3815  -5.3709  -5.3641  -5.3595  -5.3571  -5.3467  -5.1830  -5.1625
    -5.1571  -5.1523  -5.1482  -5.1382  -5.1207  -5.1171  -5.1026  -5.0697
    -5.0554  -5.0374  -4.9568  -4.9496  -4.9336  -4.9187  -4.9142  -4.9033
    -4.3023  -4.0742  -3.8398  -3.7141  -3.5869  -3.4622  -3.2103  -2.9770
    -0.8480  -0.7018  -0.6235  -0.5938  -0.5363  -0.4652  -0.4103  -0.2976
    -0.1411  -0.0292   0.1176   0.1720   0.2830   0.3962   0.4332   0.4962
     0.5289   0.5605   0.6027   0.6258   0.6510   0.6896   0.7637   0.8030
     0.8726   0.9199   0.9320   0.9963   1.0339   1.0533   1.0940   1.1195
     1.1786   1.1945   1.2241   1.2522   1.2901   1.3086   1.3502   1.3776
     1.3990   1.4395   1.4581   1.4844   1.5028   1.5198   1.5439   1.5648
     1.5708   1.6024   1.6237   1.6479   1.6821   1.7156   1.7554   1.7690
     1.8014   1.8183   1.8470   1.8968   1.9320   1.9827   2.0190   2.0275
     2.0849   2.1477   2.2397   2.3263   2.4437   2.5127   2.7900   2.9444

          k =-0.1250 0.3750 0.1250 (132608 PWs)   bands (ev):

   -18.6226 -18.5933 -18.5158 -18.5087 -18.5037 -18.5011 -18.4971 -18.3861
   -18.3741 -18.3352 -18.2777 -18.2233 -18.2226 -18.2156 -18.2023 -18.1987
   -18.1927 -18.1894 -18.1876 -18.1858 -18.1770 -18.1728 -18.1712 -18.1674
   -18.1628 -18.1534 -18.1514 -18.1472 -18.1207 -18.1164 -18.1027 -18.1000
   -18.0996 -18.0976 -18.0924 -18.0911 -18.0899 -18.0821 -18.0740 -18.0720
   -18.0665 -18.0633 -18.0572 -18.0561 -18.0247 -18.0136 -17.9971 -17.9946
    -9.6074  -9.5109  -9.4526  -9.4265  -9.2308  -9.1695  -9.1376  -9.0805
    -9.0250  -9.0070  -8.9359  -8.9066  -8.8919  -8.8520  -8.8119  -8.7594
    -8.7212  -8.7099  -8.6943  -8.6443  -8.6366  -8.6157  -8.5609  -8.5102
    -5.3816  -5.3708  -5.3642  -5.3594  -5.3570  -5.3466  -5.1832  -5.1625
    -5.1567  -5.1522  -5.1491  -5.1378  -5.1208  -5.1165  -5.1027  -5.0697
    -5.0556  -5.0361  -4.9560  -4.9500  -4.9340  -4.9199  -4.9138  -4.9028
    -4.2853  -4.0398  -3.8118  -3.7564  -3.5648  -3.5075  -3.2722  -3.0104
    -0.6912  -0.6283  -0.5864  -0.5294  -0.4720  -0.4128  -0.3876  -0.2498
    -0.1941  -0.1405   0.0415   0.1311   0.3190   0.3658   0.4265   0.4630
     0.4914   0.5557   0.5928   0.6098   0.6604   0.6897   0.7397   0.7975
     0.8621   0.8979   0.9635   0.9986   1.0286   1.0432   1.0945   1.1368
     1.1686   1.1973   1.2262   1.2427   1.2859   1.3054   1.3255   1.3638
     1.3821   1.4157   1.4444   1.4559   1.4851   1.5055   1.5348   1.5610
     1.5773   1.6196   1.6479   1.6829   1.7146   1.7294   1.7628   1.7733
     1.8017   1.8214   1.8571   1.8712   1.9089   1.9506   2.0204   2.0475
     2.0850   2.1128   2.2025   2.3493   2.3850   2.4760   2.7686   2.9038

          k =-0.1250-0.3750-0.1250 (132608 PWs)   bands (ev):

   -18.6226 -18.5933 -18.5158 -18.5087 -18.5037 -18.5011 -18.4971 -18.3861
   -18.3741 -18.3352 -18.2777 -18.2233 -18.2226 -18.2156 -18.2023 -18.1987
   -18.1927 -18.1894 -18.1876 -18.1858 -18.1770 -18.1728 -18.1712 -18.1674
   -18.1628 -18.1534 -18.1514 -18.1472 -18.1207 -18.1164 -18.1027 -18.1000
   -18.0996 -18.0976 -18.0924 -18.0911 -18.0899 -18.0821 -18.0740 -18.0720
   -18.0665 -18.0633 -18.0572 -18.0561 -18.0247 -18.0136 -17.9971 -17.9946
    -9.6072  -9.5116  -9.4531  -9.4257  -9.2296  -9.1715  -9.1342  -9.0832
    -9.0290  -8.9995  -8.9424  -8.9035  -8.8950  -8.8501  -8.8113  -8.7585
    -8.7193  -8.7122  -8.6918  -8.6467  -8.6365  -8.6160  -8.5616  -8.5094
    -5.3816  -5.3708  -5.3643  -5.3594  -5.3570  -5.3466  -5.1831  -5.1625
    -5.1568  -5.1521  -5.1493  -5.1379  -5.1207  -5.1164  -5.1027  -5.0697
    -5.0557  -5.0361  -4.9561  -4.9500  -4.9340  -4.9200  -4.9138  -4.9027
    -4.2867  -4.0376  -3.8089  -3.7694  -3.5504  -3.4988  -3.2883  -3.0091
    -0.7027  -0.6173  -0.5738  -0.5125  -0.4691  -0.4316  -0.3887  -0.2396
    -0.1948  -0.1244   0.0238   0.0769   0.2863   0.3606   0.4527   0.4673
     0.5211   0.5751   0.5987   0.6108   0.6562   0.7023   0.7408   0.7859
     0.8450   0.9032   0.9877   1.0041   1.0181   1.0402   1.0789   1.1226
     1.1569   1.1867   1.2276   1.2668   1.2828   1.3058   1.3450   1.3570
     1.3757   1.4056   1.4435   1.4520   1.5028   1.5097   1.5419   1.5780
     1.5918   1.6314   1.6614   1.6818   1.6986   1.7263   1.7461   1.7669
     1.8008   1.8204   1.8485   1.8675   1.8939   1.9537   2.0226   2.0642
     2.0692   2.1325   2.1957   2.3295   2.3740   2.5009   2.7652   2.8983

          k = 0.1250 0.3750-0.1250 (132608 PWs)   bands (ev):

   -18.6226 -18.5933 -18.5158 -18.5087 -18.5037 -18.5011 -18.4971 -18.3861
   -18.3741 -18.3352 -18.2777 -18.2233 -18.2226 -18.2156 -18.2023 -18.1987
   -18.1927 -18.1894 -18.1876 -18.1858 -18.1770 -18.1728 -18.1712 -18.1674
   -18.1628 -18.1534 -18.1514 -18.1472 -18.1207 -18.1164 -18.1027 -18.1000
   -18.0996 -18.0976 -18.0924 -18.0911 -18.0899 -18.0821 -18.0740 -18.0720
   -18.0665 -18.0633 -18.0572 -18.0561 -18.0247 -18.0136 -17.9971 -17.9945
    -9.6071  -9.5119  -9.4536  -9.4248  -9.2288  -9.1742  -9.1330  -9.0819
    -9.0280  -9.0044  -8.9368  -8.9034  -8.8971  -8.8500  -8.8126  -8.7580
    -8.7235  -8.7088  -8.6878  -8.6469  -8.6398  -8.6159  -8.5612  -8.5092
    -5.3816  -5.3708  -5.3643  -5.3594  -5.3569  -5.3466  -5.1833  -5.1625
    -5.1567  -5.1521  -5.1492  -5.1378  -5.1207  -5.1165  -5.1027  -5.0696
    -5.0557  -5.0362  -4.9553  -4.9507  -4.9340  -4.9200  -4.9137  -4.9027
    -4.2869  -4.0371  -3.8092  -3.7684  -3.5478  -3.5031  -3.2894  -3.0073
    -0.6916  -0.6067  -0.5914  -0.5152  -0.4753  -0.4294  -0.3814  -0.2550
    -0.1663  -0.1462   0.0041   0.0841   0.2901   0.3660   0.4546   0.4761
     0.5361   0.5637   0.5979   0.6093   0.6621   0.6948   0.7338   0.7851
     0.8283   0.9121   0.9612   1.0189   1.0278   1.0764   1.1069   1.1169
     1.1532   1.1904   1.2328   1.2480   1.2721   1.2981   1.3273   1.3645
     1.3897   1.3982   1.4310   1.4543   1.4961   1.5077   1.5400   1.5771
     1.6075   1.6343   1.6665   1.6727   1.7114   1.7308   1.7456   1.7684
     1.8057   1.8181   1.8524   1.8645   1.9005   1.9337   2.0071   2.0616
     2.0736   2.1193   2.1839   2.3444   2.3867   2.4924   2.7795   2.8906

          k = 0.1250-0.3750 0.1250 (132608 PWs)   bands (ev):

   -18.6226 -18.5933 -18.5158 -18.5087 -18.5037 -18.5011 -18.4971 -18.3861
   -18.3741 -18.3352 -18.2777 -18.2233 -18.2226 -18.2156 -18.2023 -18.1987
   -18.1927 -18.1894 -18.1876 -18.1858 -18.1770 -18.1728 -18.1712 -18.1674
   -18.1628 -18.1534 -18.1514 -18.1472 -18.1207 -18.1164 -18.1027 -18.1000
   -18.0996 -18.0976 -18.0924 -18.0911 -18.0899 -18.0821 -18.0740 -18.0720
   -18.0665 -18.0633 -18.0572 -18.0561 -18.0247 -18.0136 -17.9971 -17.9946
    -9.6074  -9.5111  -9.4533  -9.4255  -9.2311  -9.1735  -9.1325  -9.0815
    -9.0263  -9.0015  -8.9413  -8.9056  -8.8959  -8.8491  -8.8120  -8.7581
    -8.7176  -8.7151  -8.6907  -8.6423  -8.6402  -8.6168  -8.5605  -8.5099
    -5.3816  -5.3708  -5.3642  -5.3594  -5.3569  -5.3466  -5.1831  -5.1625
    -5.1566  -5.1523  -5.1492  -5.1379  -5.1208  -5.1163  -5.1027  -5.0696
    -5.0556  -5.0363  -4.9552  -4.9507  -4.9339  -4.9200  -4.9137  -4.9028
    -4.2864  -4.0380  -3.8071  -3.7663  -3.5674  -3.4948  -3.2767  -3.0122
    -0.7069  -0.6123  -0.5812  -0.4925  -0.4827  -0.4350  -0.3917  -0.2519
    -0.1791  -0.1536   0.0248   0.1262   0.3316   0.3768   0.4310   0.4747
     0.5032   0.5286   0.5850   0.6043   0.6529   0.6955   0.7254   0.7939
     0.8776   0.9086   0.9737   0.9887   1.0403   1.0628   1.0835   1.0966
     1.1471   1.1762   1.2083   1.2727   1.2974   1.3050   1.3322   1.3742
     1.3922   1.4161   1.4524   1.4746   1.4892   1.5263   1.5377   1.5623
     1.5833   1.6276   1.6522   1.6690   1.7055   1.7212   1.7539   1.7764
     1.8075   1.8182   1.8576   1.8719   1.8965   1.9437   2.0069   2.0516
     2.0732   2.1209   2.1907   2.3345   2.3880   2.5020   2.7800   2.8908

          k =-0.1250-0.3750 0.3750 (132616 PWs)   bands (ev):

   -18.6226 -18.5933 -18.5158 -18.5087 -18.5037 -18.5011 -18.4971 -18.3861
   -18.3741 -18.3352 -18.2777 -18.2233 -18.2226 -18.2156 -18.2023 -18.1987
   -18.1927 -18.1894 -18.1876 -18.1858 -18.1770 -18.1728 -18.1712 -18.1674
   -18.1628 -18.1534 -18.1514 -18.1472 -18.1207 -18.1164 -18.1027 -18.1000
   -18.0996 -18.0976 -18.0924 -18.0911 -18.0899 -18.0821 -18.0740 -18.0720
   -18.0665 -18.0633 -18.0572 -18.0561 -18.0247 -18.0136 -17.9971 -17.9946
    -9.6047  -9.4992  -9.4661  -9.4247  -9.2334  -9.1722  -9.1427  -9.0959
    -9.0169  -8.9932  -8.9388  -8.9099  -8.8967  -8.8496  -8.8119  -8.7540
    -8.7220  -8.6901  -8.6755  -8.6568  -8.6437  -8.6247  -8.5655  -8.5101
    -5.3816  -5.3708  -5.3642  -5.3594  -5.3569  -5.3467  -5.1830  -5.1623
    -5.1566  -5.1520  -5.1495  -5.1380  -5.1210  -5.1168  -5.1027  -5.0695
    -5.0557  -5.0360  -4.9553  -4.9505  -4.9343  -4.9198  -4.9136  -4.9028
    -4.1899  -3.9799  -3.8811  -3.7037  -3.6689  -3.4550  -3.3981  -3.1381
    -0.6702  -0.5408  -0.4555  -0.4426  -0.3858  -0.2727  -0.2006  -0.1622
    -0.1328   0.0202   0.0500   0.1558   0.2512   0.3059   0.4142   0.4292
     0.4827   0.5195   0.5248   0.5877   0.6135   0.6490   0.6890   0.7531
     0.8033   0.8706   0.8931   0.9583   0.9786   1.0253   1.0303   1.0839
     1.1066   1.1512   1.1792   1.2167   1.2437   1.2626   1.3160   1.3430
     1.3837   1.4177   1.4528   1.4735   1.5193   1.5403   1.5622   1.5881
     1.6271   1.6475   1.6760   1.6897   1.7060   1.7424   1.7822   1.7930
     1.8269   1.8383   1.8574   1.8703   1.8912   1.9343   1.9420   1.9975
     2.0454   2.0732   2.1409   2.2504   2.3273   2.4020   2.5533   2.6763

          k =-0.1250 0.3750-0.3750 (132616 PWs)   bands (ev):

   -18.6226 -18.5933 -18.5158 -18.5087 -18.5037 -18.5011 -18.4971 -18.3861
   -18.3741 -18.3352 -18.2777 -18.2233 -18.2226 -18.2156 -18.2023 -18.1987
   -18.1927 -18.1894 -18.1876 -18.1858 -18.1770 -18.1728 -18.1712 -18.1674
   -18.1628 -18.1534 -18.1514 -18.1472 -18.1207 -18.1164 -18.1027 -18.1000
   -18.0996 -18.0976 -18.0924 -18.0911 -18.0899 -18.0821 -18.0740 -18.0720
   -18.0665 -18.0633 -18.0572 -18.0561 -18.0247 -18.0136 -17.9971 -17.9946
    -9.6050  -9.4985  -9.4654  -9.4255  -9.2356  -9.1735  -9.1412  -9.0933
    -9.0160  -8.9894  -8.9456  -8.9101  -8.8975  -8.8482  -8.8107  -8.7548
    -8.7196  -8.6952  -8.6759  -8.6549  -8.6423  -8.6249  -8.5647  -8.5108
    -5.3816  -5.3708  -5.3642  -5.3595  -5.3569  -5.3467  -5.1828  -5.1624
    -5.1565  -5.1523  -5.1494  -5.1381  -5.1210  -5.1166  -5.1027  -5.0695
    -5.0556  -5.0361  -4.9553  -4.9504  -4.9342  -4.9197  -4.9136  -4.9028
    -4.1917  -3.9709  -3.8792  -3.7158  -3.6831  -3.4381  -3.3898  -3.1458
    -0.6742  -0.5493  -0.4677  -0.4418  -0.3726  -0.2767  -0.1963  -0.1705
    -0.1266   0.0260   0.0764   0.1619   0.2727   0.3350   0.3871   0.4315
     0.4775   0.4994   0.5355   0.5559   0.5912   0.6353   0.6887   0.7625
     0.8242   0.8714   0.9055   0.9378   0.9658   1.0126   1.0372   1.0692
     1.1020   1.1401   1.1905   1.2282   1.2452   1.2787   1.3263   1.3545
     1.3976   1.4190   1.4526   1.4803   1.5148   1.5238   1.5490   1.5773
     1.6160   1.6548   1.6757   1.6960   1.7129   1.7452   1.7764   1.7890
     1.8276   1.8426   1.8522   1.8709   1.8901   1.9341   1.9610   1.9891
     2.0497   2.0761   2.1567   2.2154   2.3460   2.4145   2.5610   2.6597

          k = 0.1250-0.3750-0.3750 (132616 PWs)   bands (ev):

   -18.6226 -18.5933 -18.5158 -18.5087 -18.5037 -18.5011 -18.4971 -18.3861
   -18.3741 -18.3352 -18.2777 -18.2233 -18.2226 -18.2156 -18.2023 -18.1987
   -18.1927 -18.1894 -18.1876 -18.1858 -18.1770 -18.1728 -18.1712 -18.1674
   -18.1628 -18.1534 -18.1514 -18.1472 -18.1207 -18.1164 -18.1027 -18.1000
   -18.0996 -18.0976 -18.0924 -18.0911 -18.0899 -18.0821 -18.0740 -18.0720
   -18.0665 -18.0633 -18.0572 -18.0561 -18.0247 -18.0136 -17.9971 -17.9946
    -9.6050  -9.4983  -9.4649  -9.4264  -9.2352  -9.1675  -9.1488  -9.0920
    -9.0149  -8.9959  -8.9384  -8.9112  -8.8945  -8.8506  -8.8107  -8.7550
    -8.7211  -8.6926  -8.6813  -8.6552  -8.6386  -8.6239  -8.5652  -8.5111
    -5.3816  -5.3708  -5.3642  -5.3594  -5.3569  -5.3466  -5.1829  -5.1624
    -5.1566  -5.1522  -5.1493  -5.1380  -5.1210  -5.1167  -5.1027  -5.0696
    -5.0557  -5.0360  -4.9560  -4.9498  -4.9343  -4.9196  -4.9137  -4.9029
    -4.1894  -3.9774  -3.8781  -3.7042  -3.6816  -3.4762  -3.3627  -3.1442
    -0.6673  -0.5565  -0.4827  -0.4388  -0.3791  -0.2737  -0.2058  -0.1587
    -0.1147   0.0162   0.1155   0.1817   0.2080   0.3315   0.4139   0.4320
     0.4590   0.5121   0.5305   0.5695   0.5794   0.6571   0.6923   0.7756
     0.8140   0.8498   0.9040   0.9369   0.9543   0.9978   1.0619   1.0822
     1.1172   1.1625   1.1913   1.2039   1.2375   1.2834   1.3009   1.3448
     1.3839   1.4005   1.4680   1.4874   1.5129   1.5342   1.5478   1.5816
     1.6037   1.6475   1.6580   1.6924   1.7229   1.7535   1.7838   1.7908
     1.8120   1.8403   1.8532   1.8819   1.9062   1.9339   1.9646   2.0078
     2.0500   2.0743   2.1792   2.2126   2.3133   2.4261   2.5392   2.6747

          k = 0.3750 0.1250-0.3750 (132616 PWs)   bands (ev):

   -18.6226 -18.5933 -18.5158 -18.5087 -18.5037 -18.5011 -18.4971 -18.3861
   -18.3741 -18.3352 -18.2777 -18.2233 -18.2227 -18.2156 -18.2023 -18.1987
   -18.1927 -18.1894 -18.1876 -18.1858 -18.1770 -18.1728 -18.1712 -18.1674
   -18.1628 -18.1534 -18.1514 -18.1472 -18.1207 -18.1164 -18.1027 -18.1000
   -18.0996 -18.0976 -18.0924 -18.0912 -18.0899 -18.0821 -18.0740 -18.0720
   -18.0665 -18.0633 -18.0572 -18.0561 -18.0247 -18.0136 -17.9971 -17.9946
    -9.6045  -9.5072  -9.4784  -9.3962  -9.2332  -9.1834  -9.1423  -9.0981
    -9.0091  -8.9901  -8.9412  -8.9042  -8.8944  -8.8716  -8.7922  -8.7577
    -8.7282  -8.6872  -8.6809  -8.6605  -8.6509  -8.6204  -8.5583  -8.5083
    -5.3815  -5.3709  -5.3641  -5.3595  -5.3569  -5.3467  -5.1830  -5.1627
    -5.1573  -5.1523  -5.1487  -5.1383  -5.1206  -5.1169  -5.1028  -5.0695
    -5.0553  -5.0375  -4.9544  -4.9516  -4.9338  -4.9185  -4.9141  -4.9034
    -4.2086  -4.0003  -3.9270  -3.7431  -3.5945  -3.4026  -3.3466  -3.1146
    -0.8326  -0.6993  -0.5426  -0.4867  -0.3672  -0.2825  -0.2157  -0.1398
    -0.0472  -0.0101   0.1281   0.2075   0.2737   0.3584   0.4050   0.4341
     0.4574   0.5269   0.5411   0.5852   0.6155   0.6545   0.6982   0.7724
     0.8148   0.8550   0.9045   0.9509   0.9767   0.9997   1.0702   1.0846
     1.1114   1.1642   1.1916   1.2481   1.2771   1.3069   1.3356   1.3760
     1.3887   1.4228   1.4599   1.4751   1.5065   1.5356   1.5539   1.5868
     1.6086   1.6397   1.6605   1.6869   1.7051   1.7339   1.7537   1.7961
     1.8171   1.8377   1.8496   1.8949   1.9163   1.9350   1.9530   1.9845
     2.0360   2.0570   2.1241   2.2158   2.3774   2.4940   2.6116   2.7439

          k =-0.3750-0.1250-0.3750 (132616 PWs)   bands (ev):

   -18.6226 -18.5933 -18.5158 -18.5087 -18.5037 -18.5011 -18.4971 -18.3861
   -18.3741 -18.3352 -18.2777 -18.2233 -18.2227 -18.2156 -18.2023 -18.1987
   -18.1927 -18.1894 -18.1876 -18.1858 -18.1770 -18.1728 -18.1712 -18.1674
   -18.1628 -18.1534 -18.1514 -18.1472 -18.1207 -18.1164 -18.1027 -18.1000
   -18.0996 -18.0976 -18.0924 -18.0912 -18.0899 -18.0821 -18.0740 -18.0720
   -18.0665 -18.0633 -18.0572 -18.0561 -18.0247 -18.0136 -17.9971 -17.9946
    -9.6046  -9.5068  -9.4784  -9.3966  -9.2328  -9.1848  -9.1383  -9.1022
    -9.0089  -8.9856  -8.9448  -8.9038  -8.8951  -8.8726  -8.7887  -8.7607
    -8.7261  -8.6907  -8.6791  -8.6608  -8.6516  -8.6187  -8.5584  -8.5086
    -5.3815  -5.3709  -5.3641  -5.3595  -5.3569  -5.3467  -5.1828  -5.1628
    -5.1574  -5.1523  -5.1487  -5.1384  -5.1206  -5.1168  -5.1028  -5.0697
    -5.0553  -5.0374  -4.9555  -4.9506  -4.9338  -4.9184  -4.9142  -4.9034
    -4.2097  -3.9919  -3.9357  -3.7359  -3.6094  -3.3996  -3.3325  -3.1228
    -0.8344  -0.7007  -0.5414  -0.4824  -0.3733  -0.2946  -0.2361  -0.1174
    -0.0089   0.0283   0.1159   0.1851   0.2495   0.3458   0.4028   0.4161
     0.4645   0.5352   0.5505   0.5888   0.6193   0.6587   0.7173   0.7407
     0.8184   0.8525   0.8966   0.9244   1.0167   1.0221   1.0346   1.0853
     1.1228   1.1655   1.1986   1.2494   1.2703   1.2905   1.3392   1.3690
     1.3893   1.4279   1.4572   1.4736   1.5154   1.5261   1.5540   1.5886
     1.6048   1.6295   1.6522   1.6935   1.7119   1.7379   1.7707   1.7902
     1.8016   1.8411   1.8615   1.8814   1.9069   1.9246   1.9701   1.9990
     2.0439   2.0926   2.1443   2.1771   2.3628   2.5249   2.5973   2.7264

          k = 0.3750-0.1250 0.3750 (132616 PWs)   bands (ev):

   -18.6226 -18.5933 -18.5158 -18.5087 -18.5037 -18.5011 -18.4971 -18.3861
   -18.3741 -18.3352 -18.2777 -18.2233 -18.2227 -18.2156 -18.2023 -18.1987
   -18.1927 -18.1894 -18.1876 -18.1858 -18.1770 -18.1728 -18.1712 -18.1674
   -18.1628 -18.1534 -18.1514 -18.1472 -18.1207 -18.1164 -18.1027 -18.1000
   -18.0996 -18.0976 -18.0924 -18.0912 -18.0899 -18.0821 -18.0740 -18.0720
   -18.0665 -18.0633 -18.0572 -18.0561 -18.0247 -18.0136 -17.9971 -17.9946
    -9.6048  -9.5064  -9.4783  -9.3965  -9.2345  -9.1863  -9.1394  -9.0967
    -9.0061  -8.9887  -8.9453  -8.9075  -8.8927  -8.8718  -8.7903  -8.7598
    -8.7253  -8.6928  -8.6770  -8.6626  -8.6498  -8.6196  -8.5574  -8.5091
    -5.3815  -5.3709  -5.3641  -5.3596  -5.3569  -5.3467  -5.1827  -5.1628
    -5.1572  -5.1525  -5.1487  -5.1383  -5.1206  -5.1168  -5.1028  -5.0696
    -5.0553  -5.0376  -4.9544  -4.9515  -4.9337  -4.9184  -4.9141  -4.9035
    -4.2112  -3.9912  -3.9270  -3.7477  -3.6137  -3.3954  -3.3249  -3.1261
    -0.8328  -0.7006  -0.5557  -0.4892  -0.3806  -0.2834  -0.2168  -0.1138
    -0.0205   0.0288   0.1181   0.1969   0.2643   0.3422   0.4139   0.4558
     0.4781   0.4886   0.5184   0.5778   0.6027   0.6348   0.7213   0.7643
     0.8181   0.8573   0.8808   0.9533   0.9988   1.0231   1.0552   1.0814
     1.1261   1.1502   1.1965   1.2323   1.2882   1.3029   1.3377   1.3702
     1.4093   1.4402   1.4512   1.4658   1.5049   1.5262   1.5667   1.5819
     1.6036   1.6291   1.6444   1.6757   1.7060   1.7406   1.7546   1.8100
     1.8274   1.8377   1.8681   1.8836   1.9032   1.9381   1.9533   2.0028
     2.0359   2.0804   2.1292   2.1774   2.3700   2.5135   2.6257   2.7270

          k =-0.3750 0.1250 0.3750 (132616 PWs)   bands (ev):

   -18.6226 -18.5933 -18.5158 -18.5087 -18.5037 -18.5011 -18.4971 -18.3861
   -18.3741 -18.3352 -18.2777 -18.2233 -18.2227 -18.2156 -18.2023 -18.1987
   -18.1927 -18.1894 -18.1876 -18.1858 -18.1770 -18.1728 -18.1712 -18.1674
   -18.1628 -18.1534 -18.1514 -18.1472 -18.1207 -18.1164 -18.1027 -18.1000
   -18.0996 -18.0976 -18.0924 -18.0912 -18.0899 -18.0821 -18.0740 -18.0720
   -18.0665 -18.0633 -18.0572 -18.0561 -18.0247 -18.0136 -17.9971 -17.9946
    -9.6048  -9.5064  -9.4779  -9.3971  -9.2348  -9.1822  -9.1441  -9.0954
    -9.0052  -8.9950  -8.9389  -8.9063  -8.8927  -8.8730  -8.7892  -8.7601
    -8.7285  -8.6905  -8.6840  -8.6562  -8.6497  -8.6193  -8.5576  -8.5093
    -5.3815  -5.3709  -5.3641  -5.3595  -5.3569  -5.3467  -5.1830  -5.1627
    -5.1573  -5.1523  -5.1485  -5.1383  -5.1206  -5.1169  -5.1028  -5.0697
    -5.0553  -5.0375  -4.9556  -4.9505  -4.9338  -4.9184  -4.9142  -4.9035
    -4.2091  -3.9907  -3.9279  -3.7588  -3.5993  -3.3946  -3.3366  -3.1195
    -0.8367  -0.6977  -0.5569  -0.4835  -0.3785  -0.2828  -0.2113  -0.1346
    -0.0473  -0.0013   0.1540   0.2265   0.2836   0.3707   0.3889   0.4428
     0.4749   0.4910   0.5397   0.5648   0.6023   0.6473   0.7405   0.7495
     0.8188   0.8467   0.9066   0.9268   0.9598   1.0080   1.0639   1.0984
     1.1425   1.1519   1.1880   1.2271   1.2821   1.3026   1.3343   1.3676
     1.3926   1.4375   1.4632   1.4793   1.5070   1.5231   1.5655   1.5848
     1.6006   1.6252   1.6453   1.6742   1.6952   1.7411   1.7715   1.7958
     1.8148   1.8317   1.8656   1.8825   1.9183   1.9532   1.9674   1.9929
     2.0299   2.0744   2.1281   2.2157   2.3805   2.5154   2.6007   2.7227

          k = 0.3750-0.3750 0.1250 (132616 PWs)   bands (ev):

   -18.6226 -18.5933 -18.5158 -18.5087 -18.5037 -18.5011 -18.4971 -18.3861
   -18.3741 -18.3352 -18.2777 -18.2233 -18.2227 -18.2156 -18.2023 -18.1987
   -18.1927 -18.1894 -18.1876 -18.1858 -18.1770 -18.1728 -18.1712 -18.1674
   -18.1628 -18.1534 -18.1514 -18.1472 -18.1207 -18.1164 -18.1027 -18.1000
   -18.0996 -18.0976 -18.0924 -18.0911 -18.0899 -18.0821 -18.0740 -18.0720
   -18.0665 -18.0633 -18.0572 -18.0561 -18.0247 -18.0136 -17.9971 -17.9946
    -9.6022  -9.5094  -9.4574  -9.4290  -9.2273  -9.1743  -9.1368  -9.0823
    -9.0324  -9.0059  -8.9448  -8.9065  -8.8870  -8.8556  -8.7944  -8.7564
    -8.7219  -8.7022  -8.6929  -8.6429  -8.6379  -8.6256  -8.5601  -8.5133
    -5.3816  -5.3708  -5.3642  -5.3594  -5.3570  -5.3467  -5.1828  -5.1626
    -5.1566  -5.1523  -5.1483  -5.1381  -5.1210  -5.1170  -5.1028  -5.0696
    -5.0557  -5.0363  -4.9551  -4.9505  -4.9338  -4.9198  -4.9139  -4.9027
    -4.1828  -3.9954  -3.8907  -3.7063  -3.6043  -3.5257  -3.3440  -3.1675
    -0.6442  -0.5729  -0.5482  -0.4207  -0.3776  -0.3133  -0.2390  -0.1368
    -0.1098  -0.0117   0.1243   0.2340   0.2820   0.3473   0.3890   0.4235
     0.4867   0.5040   0.5429   0.5900   0.6149   0.6552   0.6843   0.7469
     0.8375   0.8818   0.8963   0.9307   0.9816   1.0049   1.0297   1.0755
     1.1179   1.1522   1.1840   1.2402   1.2711   1.3123   1.3290   1.3509
     1.3683   1.4069   1.4433   1.4607   1.4938   1.5101   1.5241   1.5538
     1.5767   1.6150   1.6509   1.6909   1.7056   1.7458   1.7673   1.7910
     1.8338   1.8546   1.8682   1.8924   1.9156   1.9495   1.9900   2.0166
     2.0416   2.0639   2.1418   2.2057   2.3005   2.4059   2.5903   2.6631

          k =-0.3750-0.3750-0.1250 (132616 PWs)   bands (ev):

   -18.6226 -18.5933 -18.5158 -18.5087 -18.5037 -18.5011 -18.4971 -18.3861
   -18.3741 -18.3352 -18.2777 -18.2233 -18.2227 -18.2156 -18.2023 -18.1987
   -18.1927 -18.1894 -18.1876 -18.1858 -18.1770 -18.1728 -18.1712 -18.1674
   -18.1628 -18.1534 -18.1514 -18.1472 -18.1207 -18.1164 -18.1027 -18.1000
   -18.0996 -18.0976 -18.0924 -18.0911 -18.0899 -18.0821 -18.0740 -18.0720
   -18.0665 -18.0633 -18.0572 -18.0561 -18.0247 -18.0136 -17.9971 -17.9946
    -9.6020  -9.5101  -9.4567  -9.4295  -9.2253  -9.1744  -9.1358  -9.0861
    -9.0336  -9.0045  -8.9450  -8.9039  -8.8889  -8.8554  -8.7930  -8.7566
    -8.7237  -8.7020  -8.6902  -8.6466  -8.6385  -8.6228  -8.5611  -8.5127
    -5.3816  -5.3708  -5.3643  -5.3593  -5.3570  -5.3466  -5.1828  -5.1626
    -5.1568  -5.1521  -5.1483  -5.1381  -5.1210  -5.1171  -5.1028  -5.0697
    -5.0557  -5.0361  -4.9559  -4.9498  -4.9338  -4.9198  -4.9140  -4.9026
    -4.1845  -3.9879  -3.8932  -3.7292  -3.6006  -3.4590  -3.4055  -3.1573
    -0.6517  -0.5592  -0.5442  -0.4329  -0.3625  -0.3307  -0.2218  -0.1321
    -0.0685   0.0105   0.0502   0.1684   0.2234   0.3326   0.4098   0.4556
     0.5104   0.5578   0.5755   0.6004   0.6258   0.6716   0.6859   0.7542
     0.7974   0.8478   0.8878   0.9414   0.9822   0.9941   1.0326   1.0947
     1.1253   1.1446   1.2088   1.2261   1.2667   1.2885   1.3178   1.3471
     1.3755   1.4028   1.4313   1.4565   1.4764   1.5309   1.5425   1.5515
     1.5792   1.6113   1.6442   1.6902   1.7215   1.7335   1.7817   1.7942
     1.8275   1.8552   1.8630   1.8896   1.9041   1.9530   1.9978   2.0178
     2.0462   2.0752   2.1427   2.2094   2.3068   2.4088   2.5753   2.6532

          k = 0.3750 0.3750-0.1250 (132616 PWs)   bands (ev):

   -18.6226 -18.5933 -18.5158 -18.5087 -18.5037 -18.5011 -18.4971 -18.3861
   -18.3741 -18.3352 -18.2777 -18.2233 -18.2227 -18.2156 -18.2023 -18.1987
   -18.1927 -18.1894 -18.1876 -18.1858 -18.1770 -18.1728 -18.1712 -18.1674
   -18.1628 -18.1534 -18.1514 -18.1472 -18.1207 -18.1164 -18.1027 -18.1000
   -18.0996 -18.0976 -18.0924 -18.0911 -18.0899 -18.0821 -18.0740 -18.0720
   -18.0665 -18.0633 -18.0572 -18.0561 -18.0247 -18.0136 -17.9971 -17.9946
    -9.6019  -9.5103  -9.4575  -9.4284  -9.2247  -9.1754  -9.1372  -9.0827
    -9.0341  -9.0086  -8.9407  -8.9042  -8.8892  -8.8554  -8.7951  -8.7563
    -8.7243  -8.7005  -8.6879  -8.6489  -8.6379  -8.6238  -8.5609  -8.5125
    -5.3816  -5.3708  -5.3643  -5.3593  -5.3570  -5.3467  -5.1830  -5.1626
    -5.1567  -5.1521  -5.1484  -5.1379  -5.1210  -5.1172  -5.1028  -5.0696
    -5.0557  -5.0362  -4.9551  -4.9505  -4.9338  -4.9199  -4.9139  -4.9027
    -4.1841  -3.9924  -3.8924  -3.7082  -3.6204  -3.4570  -3.4094  -3.1531
    -0.6310  -0.5723  -0.5498  -0.4359  -0.3634  -0.3308  -0.2297  -0.1080
    -0.0685  -0.0058   0.0427   0.1605   0.2222   0.3289   0.4176   0.4629
     0.5064   0.5547   0.5748   0.6112   0.6397   0.6590   0.6976   0.7705
     0.7835   0.8155   0.9091   0.9308   0.9785   1.0032   1.0645   1.0909
     1.1272   1.1713   1.1987   1.2131   1.2585   1.2954   1.3190   1.3203
     1.3805   1.3985   1.4321   1.4666   1.4863   1.5106   1.5186   1.5554
     1.5872   1.6028   1.6581   1.7025   1.7245   1.7536   1.7756   1.7914
     1.8357   1.8506   1.8617   1.8908   1.9060   1.9365   1.9812   2.0251
     2.0497   2.0709   2.1203   2.2052   2.3284   2.3867   2.5855   2.6681

          k =-0.3750 0.3750 0.1250 (132616 PWs)   bands (ev):

   -18.6226 -18.5933 -18.5158 -18.5087 -18.5037 -18.5011 -18.4971 -18.3861
   -18.3741 -18.3352 -18.2777 -18.2233 -18.2227 -18.2156 -18.2023 -18.1987
   -18.1927 -18.1894 -18.1876 -18.1858 -18.1770 -18.1728 -18.1712 -18.1674
   -18.1628 -18.1534 -18.1514 -18.1472 -18.1207 -18.1164 -18.1027 -18.1000
   -18.0996 -18.0976 -18.0924 -18.0911 -18.0899 -18.0821 -18.0740 -18.0720
   -18.0665 -18.0633 -18.0572 -18.0561 -18.0247 -18.0136 -17.9971 -17.9946
    -9.6023  -9.5093  -9.4564  -9.4302  -9.2268  -9.1719  -9.1395  -9.0833
    -9.0297  -9.0118  -8.9390  -8.9052  -8.8878  -8.8569  -8.7934  -8.7576
    -8.7246  -8.6998  -8.6944  -8.6437  -8.6385  -8.6227  -8.5603  -8.5136
    -5.3816  -5.3708  -5.3642  -5.3593  -5.3570  -5.3467  -5.1830  -5.1625
    -5.1567  -5.1521  -5.1481  -5.1380  -5.1210  -5.1172  -5.1028  -5.0697
    -5.0557  -5.0362  -4.9559  -4.9498  -4.9338  -4.9198  -4.9140  -4.9028
    -4.1812  -3.9951  -3.8940  -3.6924  -3.6272  -3.5165  -3.3450  -3.1648
    -0.6416  -0.5779  -0.5395  -0.4192  -0.4057  -0.3116  -0.2292  -0.1401
    -0.1112  -0.0079   0.1450   0.2352   0.2714   0.3465   0.3871   0.4173
     0.4837   0.5090   0.5468   0.5877   0.6196   0.6794   0.6972   0.7621
     0.8073   0.8617   0.9015   0.9352   0.9728   0.9944   1.0368   1.0711
     1.1291   1.1581   1.2231   1.2451   1.2676   1.2887   1.3108   1.3404
     1.3552   1.3859   1.4344   1.4686   1.4860   1.5146   1.5383   1.5526
     1.5661   1.5994   1.6585   1.6918   1.7185   1.7269   1.7745   1.8050
     1.8293   1.8526   1.8658   1.8890   1.9469   1.9528   1.9927   2.0192
     2.0420   2.0601   2.1597   2.2091   2.3044   2.4039   2.5762   2.6541

          k =-0.3750-0.3750 0.3750 (132612 PWs)   bands (ev):

   -18.6226 -18.5933 -18.5158 -18.5087 -18.5037 -18.5011 -18.4971 -18.3861
   -18.3741 -18.3352 -18.2777 -18.2233 -18.2227 -18.2156 -18.2023 -18.1987
   -18.1927 -18.1894 -18.1876 -18.1858 -18.1770 -18.1728 -18.1712 -18.1674
   -18.1628 -18.1534 -18.1514 -18.1472 -18.1207 -18.1164 -18.1027 -18.1000
   -18.0996 -18.0976 -18.0924 -18.0911 -18.0899 -18.0821 -18.0740 -18.0720
   -18.0665 -18.0633 -18.0572 -18.0561 -18.0247 -18.0136 -17.9971 -17.9946
    -9.6001  -9.4979  -9.4679  -9.4289  -9.2262  -9.1772  -9.1471  -9.0994
    -9.0210  -8.9951  -8.9482  -8.9051  -8.8930  -8.8540  -8.7903  -8.7490
    -8.7216  -8.6868  -8.6807  -8.6619  -8.6415  -8.6269  -8.5653  -8.5133
    -5.3817  -5.3708  -5.3643  -5.3594  -5.3569  -5.3467  -5.1829  -5.1625
    -5.1566  -5.1523  -5.1488  -5.1382  -5.1209  -5.1170  -5.1029  -5.0694
    -5.0556  -5.0360  -4.9551  -4.9503  -4.9340  -4.9195  -4.9138  -4.9027
    -4.0913  -3.9281  -3.8175  -3.7652  -3.6124  -3.5676  -3.5229  -3.2730
    -0.5082  -0.4274  -0.3423  -0.2980  -0.2635  -0.2123  -0.1513  -0.1026
    -0.0344   0.0071   0.0860   0.1572   0.2214   0.3144   0.3406   0.3988
     0.4396   0.4646   0.5092   0.5632   0.6108   0.6279   0.6551   0.7505
     0.8056   0.8402   0.8901   0.9561   0.9714   0.9923   1.0249   1.0530
     1.0715   1.1290   1.1409   1.1926   1.2186   1.2495   1.2781   1.3147
     1.3378   1.3769   1.4147   1.4540   1.4878   1.5200   1.5678   1.5918
     1.6237   1.6372   1.6672   1.7031   1.7261   1.7573   1.7905   1.8133
     1.8402   1.8452   1.8690   1.8981   1.9198   1.9322   1.9472   1.9843
     2.0141   2.0468   2.0657   2.1683   2.2039   2.2478   2.3695   2.4537

          k =-0.3750 0.3750-0.3750 (132612 PWs)   bands (ev):

   -18.6226 -18.5933 -18.5158 -18.5087 -18.5037 -18.5011 -18.4971 -18.3861
   -18.3741 -18.3352 -18.2777 -18.2233 -18.2227 -18.2156 -18.2023 -18.1987
   -18.1927 -18.1894 -18.1876 -18.1858 -18.1770 -18.1728 -18.1712 -18.1674
   -18.1628 -18.1534 -18.1514 -18.1472 -18.1207 -18.1164 -18.1027 -18.1000
   -18.0996 -18.0976 -18.0924 -18.0911 -18.0899 -18.0821 -18.0740 -18.0720
   -18.0665 -18.0633 -18.0572 -18.0561 -18.0247 -18.0136 -17.9971 -17.9946
    -9.6003  -9.4971  -9.4672  -9.4298  -9.2290  -9.1778  -9.1458  -9.0968
    -9.0204  -8.9905  -8.9548  -8.9075  -8.8913  -8.8534  -8.7887  -8.7504
    -8.7186  -8.6941  -8.6793  -8.6595  -8.6403  -8.6271  -8.5644  -8.5142
    -5.3817  -5.3708  -5.3642  -5.3594  -5.3569  -5.3467  -5.1827  -5.1626
    -5.1566  -5.1525  -5.1487  -5.1383  -5.1209  -5.1169  -5.1029  -5.0694
    -5.0556  -5.0361  -4.9551  -4.9502  -4.9339  -4.9195  -4.9138  -4.9028
    -4.0963  -3.9022  -3.8197  -3.7707  -3.6852  -3.5478  -3.4638  -3.2922
    -0.5055  -0.4566  -0.3452  -0.2988  -0.2465  -0.2128  -0.1682  -0.0891
    -0.0579   0.0336   0.1091   0.2164   0.2607   0.3078   0.3371   0.3757
     0.4299   0.4709   0.5037   0.5260   0.5396   0.6286   0.6500   0.7487
     0.8366   0.8609   0.9033   0.9236   0.9694   0.9794   1.0076   1.0577
     1.0849   1.1136   1.1495   1.1860   1.2158   1.2564   1.2985   1.3117
     1.3675   1.3892   1.4187   1.4706   1.4811   1.5110   1.5521   1.5918
     1.6114   1.6354   1.6660   1.6928   1.7196   1.7537   1.7834   1.8169
     1.8370   1.8620   1.8761   1.9035   1.9159   1.9332   1.9549   1.9822
     2.0113   2.0541   2.0777   2.1437   2.1986   2.2852   2.3885   2.4158

          k = 0.3750-0.3750-0.3750 (132612 PWs)   bands (ev):

   -18.6226 -18.5933 -18.5158 -18.5087 -18.5037 -18.5011 -18.4971 -18.3861
   -18.3741 -18.3352 -18.2777 -18.2233 -18.2227 -18.2156 -18.2023 -18.1987
   -18.1927 -18.1894 -18.1876 -18.1858 -18.1770 -18.1728 -18.1712 -18.1674
   -18.1628 -18.1534 -18.1514 -18.1472 -18.1207 -18.1164 -18.1027 -18.1000
   -18.0996 -18.0976 -18.0924 -18.0911 -18.0899 -18.0821 -18.0740 -18.0720
   -18.0665 -18.0633 -18.0572 -18.0561 -18.0247 -18.0136 -17.9971 -17.9946
    -9.6004  -9.4971  -9.4663  -9.4309  -9.2283  -9.1750  -9.1493  -9.0970
    -9.0185  -8.9983  -8.9468  -8.9060  -8.8925  -8.8544  -8.7883  -8.7502
    -8.7218  -8.6900  -8.6847  -8.6583  -8.6405  -8.6246  -8.5646  -8.5145
    -5.3816  -5.3708  -5.3642  -5.3594  -5.3570  -5.3467  -5.1829  -5.1625
    -5.1567  -5.1523  -5.1485  -5.1382  -5.1209  -5.1170  -5.1029  -5.0696
    -5.0556  -5.0360  -4.9559  -4.9495  -4.9340  -4.9194  -4.9138  -4.9028
    -4.0933  -3.8995  -3.8405  -3.7456  -3.6926  -3.5574  -3.4603  -3.2881
    -0.5073  -0.4373  -0.3693  -0.3010  -0.2513  -0.2243  -0.1576  -0.1096
    -0.0365   0.0167   0.1566   0.2100   0.2519   0.3031   0.3454   0.3874
     0.4235   0.4558   0.5080   0.5308   0.5500   0.6376   0.6597   0.7595
     0.8160   0.8682   0.8738   0.9263   0.9525   0.9870   1.0153   1.0469
     1.0861   1.1337   1.1779   1.1925   1.2127   1.2361   1.2650   1.3116
     1.3535   1.3824   1.4023   1.4626   1.4943   1.5248   1.5494   1.5968
     1.6125   1.6389   1.6592   1.6892   1.7031   1.7538   1.8073   1.8183
     1.8265   1.8582   1.8766   1.9009   1.9353   1.9464   1.9609   1.9806
     2.0159   2.0425   2.0946   2.1608   2.2225   2.2754   2.3544   2.4081

     highest occupied level (ev):     3.1972

!    total energy              =   -2256.27016935 Ry
     estimated scf accuracy    <          4.7E-11 Ry

     The total energy is the sum of the following terms:
     one-electron contribution =    -992.38470684 Ry
     hartree contribution      =     624.39079871 Ry
     xc contribution           =    -647.61600518 Ry
     ewald contribution        =   -1240.66025605 Ry

     convergence has been achieved in  15 iterations

     Forces acting on atoms (cartesian axes, Ry/au):

     atom    1 type  1   force =    -0.00209231   -0.00065544   -0.00046136
     atom    2 type  2   force =     0.02130307    0.02232218   -0.00545920
     atom    3 type  3   force =     0.01186012   -0.00262848    0.00219605
     atom    4 type  3   force =    -0.00687928    0.00046268   -0.01711705
     atom    5 type  3   force =    -0.00092189    0.00388484    0.00239193
     atom    6 type  1   force =    -0.00117005   -0.00134365    0.00400706
     atom    7 type  2   force =    -0.03880818    0.00569203    0.01271289
     atom    8 type  3   force =     0.05224164   -0.00506483   -0.00305359
     atom    9 type  3   force =    -0.00274291    0.00773081    0.00264878
     atom   10 type  3   force =    -0.01063069    0.00945996    0.00174168
     atom   11 type  1   force =    -0.00503220   -0.00262454   -0.00773334
     atom   12 type  2   force =    -0.00273042   -0.01126778    0.00183442
     atom   13 type  3   force =    -0.07288297    0.00309296   -0.00943564
     atom   14 type  3   force =    -0.00897740    0.00282504    0.00139371
     atom   15 type  3   force =    -0.00306443   -0.02007483    0.00753752
     atom   16 type  1   force =    -0.01609047   -0.01420707    0.00481434
     atom   17 type  2   force =     0.00900660   -0.00852594   -0.00408429
     atom   18 type  3   force =    -0.00079128    0.00106197   -0.00323649
     atom   19 type  3   force =     0.00003056    0.00159697   -0.00201926
     atom   20 type  3   force =    -0.00033252   -0.00731215    0.00019660
     atom   21 type  1   force =     0.00030245    0.00152768   -0.00284128
     atom   22 type  2   force =    -0.01377765    0.00151062   -0.00830636
     atom   23 type  3   force =    -0.01334656   -0.00059628    0.00088678
     atom   24 type  3   force =     0.00099682   -0.00162758    0.00896156
     atom   25 type  3   force =    -0.00183452   -0.00215655    0.00226248
     atom   26 type  1   force =     0.00012552    0.00231031    0.00495580
     atom   27 type  2   force =     0.00692788    0.00285327    0.00505928
     atom   28 type  3   force =    -0.00914515   -0.00081317   -0.00787385
     atom   29 type  3   force =     0.01310388    0.01388142   -0.00948379
     atom   30 type  3   force =     0.00276834   -0.04904003    0.00449552
     atom   31 type  1   force =     0.00146112    0.00190453   -0.00520006
     atom   32 type  2   force =     0.07523712   -0.00577662    0.00466579
     atom   33 type  3   force =     0.00072999   -0.00028115    0.00608027
     atom   34 type  3   force =     0.00354963    0.00578906   -0.00253253
     atom   35 type  3   force =     0.00735832    0.00873522    0.00438535
     atom   36 type  1   force =     0.00496682   -0.00303721    0.00608664
     atom   37 type  2   force =    -0.00678336    0.03816209    0.00142709
     atom   38 type  3   force =     0.00249833   -0.00621993    0.00304047
     atom   39 type  3   force =     0.00001922   -0.00354712   -0.00403948
     atom   40 type  3   force =     0.00354680    0.01199673   -0.00090440

     Total force =     0.157127     Total SCF correction =     0.000032


     Computing stress (Cartesian axis) and pressure

          total   stress  (Ry/bohr**3)                   (kbar)     P=       -4.52
  -0.00001943   0.00000463   0.00000619           -2.86        0.68        0.91
   0.00000463  -0.00001733  -0.00000448            0.68       -2.55       -0.66
   0.00000619  -0.00000448  -0.00005541            0.91       -0.66       -8.15

 
     init_run     :     19.79s CPU     16.70s WALL (       1 calls)
     electrons    :    200.88s CPU    212.85s WALL (       1 calls)
     forces       :      8.85s CPU      3.91s WALL (       1 calls)
     stress       :     31.85s CPU     31.56s WALL (       1 calls)

     Called by init_run:
     wfcinit      :     11.82s CPU     13.65s WALL (       1 calls)
                                       13.65s GPU  (       1 calls)
     potinit      :      4.60s CPU      1.39s WALL (       1 calls)
     hinit0       :      2.83s CPU      0.99s WALL (       1 calls)

     Called by electrons:
     c_bands      :    119.94s CPU    170.45s WALL (      16 calls)
     sum_band     :     22.00s CPU     21.05s WALL (      16 calls)
                                       21.05s GPU  (      16 calls)
     v_of_rho     :     54.70s CPU     16.55s WALL (      16 calls)
     mix_rho      :      6.38s CPU      4.97s WALL (      16 calls)

     Called by c_bands:
     init_us_2    :      2.42s CPU      3.21s WALL (     280 calls)
                                        3.20s GPU  (     280 calls)
     cegterg      :     80.21s CPU    127.96s WALL (     128 calls)

     Called by *egterg:
     cdiaghg      :     13.62s CPU     24.95s WALL (     624 calls)
                                       24.92s GPU  (     624 calls)
     h_psi        :     54.18s CPU     74.02s WALL (     640 calls)
                                       73.57s GPU  (     640 calls)
     g_psi        :      0.00s CPU      0.36s WALL (     504 calls)
                                        0.36s GPU  (     504 calls)

     Called by h_psi:
     h_psi:calbec :      0.31s CPU      9.93s WALL (     640 calls)
                                        9.92s GPU  (     640 calls)
     vloc_psi     :     39.50s CPU     54.09s WALL (     640 calls)
                                       53.16s GPU  (     640 calls)
     add_vuspsi   :      0.33s CPU      9.93s WALL (     640 calls)
                                        9.92s GPU  (     640 calls)

     General routines
     calbec       :      0.30s CPU      0.39s WALL (     680 calls)
     fft          :     25.74s CPU      6.56s WALL (     185 calls)
                                        0.00s GPU  (       6 calls)
     ffts         :      2.63s CPU      0.68s WALL (      16 calls)
     fftw         :      0.67s CPU     62.65s WALL (   10452 calls)
                                       46.82s GPU  (   10452 calls)
 
     Parallel routines
 
     PWSCF        :   4m22.38s CPU   4m26.19s WALL

 
   This run was terminated on:  19:42:37  22Apr2021            

=------------------------------------------------------------------------------=
   JOB DONE.
=------------------------------------------------------------------------------=
