
     Program PWSCF v.6.7MaX starts on 22Apr2021 at 22: 4:20 

     This program is part of the open-source Quantum ESPRESSO suite
     for quantum simulation of materials; please cite
         "P. Giannozzi et al., J. Phys.:Condens. Matter 21 395502 (2009);
         "P. Giannozzi et al., J. Phys.:Condens. Matter 29 465901 (2017);
         "P. Giannozzi et al., J. Chem. Phys. 152 154105 (2020);
          URL http://www.quantum-espresso.org", 
     in publications or presentations arising from this work. More details at
     http://www.quantum-espresso.org/quote

     Parallel version (MPI & OpenMP), running on      16 processor cores
     Number of MPI processes:                 4
     Threads/MPI process:                     4

     MPI processes distributed on     1 nodes
     K-points division:     npool     =       4
     Reading input from ESP_23.pwi
Warning: card &CELL ignored
Warning: card / ignored

     Current dimensions of program PWSCF are:
     Max number of different atomic species (ntypx) = 10
     Max number of k-points (npk) =  40000
     Max angular momentum in pseudopotentials (lmaxx) =  3
     Message from routine read_pp_mesh:
     mesh size missing, using the one in header
     Message from routine read_pp_mesh:
     mesh size missing, using the one in header
     Message from routine read_pp_mesh:
     mesh size missing, using the one in header

     Subspace diagonalization in iterative solution of the eigenvalue problem:
     a serial algorithm will be used

 
     G-vector sticks info
     --------------------
     sticks:   dense  smooth     PW     G-vecs:    dense   smooth      PW
     Sum       12589   12589   3289              1061107  1061107  140905
 
     Using Slab Decomposition
 


     bravais-lattice index     =            0
     lattice parameter (alat)  =      23.7585  a.u.
     unit-cell volume          =   13410.8736 (a.u.)^3
     number of atoms/cell      =           40
     number of atomic types    =            3
     number of electrons       =       352.00
     number of Kohn-Sham states=          176
     kinetic-energy cutoff     =      70.0000  Ry
     charge density cutoff     =     280.0000  Ry
     scf convergence threshold =      1.0E-10
     mixing beta               =       0.7000
     number of iterations used =            8  plain     mixing
     Exchange-correlation= PBESOL
                           (   1   4  10   8   0   0   0)

     GPU acceleration is ACTIVE.


     celldm(1)=  23.758500  celldm(2)=   0.000000  celldm(3)=   0.000000
     celldm(4)=   0.000000  celldm(5)=   0.000000  celldm(6)=   0.000000

     crystal axes: (cart. coord. in units of alat)
               a(1) = (   1.000000   0.000000   0.000000 )  
               a(2) = (   0.000000   1.000000   0.000000 )  
               a(3) = (   0.000000   0.000000   1.000000 )  

     reciprocal axes: (cart. coord. in units 2 pi/alat)
               b(1) = (  1.000000  0.000000  0.000000 )  
               b(2) = (  0.000000  1.000000  0.000000 )  
               b(3) = (  0.000000  0.000000  1.000000 )  


     PseudoPot. # 1 for Cs read from file:
     /m100/home/userexternal/lmonacel/espresso/pseudo/Cs-nc-pbesol.upf
     MD5 check sum: 9d2f2206a14dc5b3b3f3fbfae186bed4
     Pseudo is Norm-conserving + core correction, Zval =  9.0
     Generated using ONCVPSP code by D. R. Hamann
     Using radial grid of 2384 points,  8 beta functions with: 
                l(1) =   0
                l(2) =   0
                l(3) =   1
                l(4) =   1
                l(5) =   2
                l(6) =   2
                l(7) =   3
                l(8) =   3

     PseudoPot. # 2 for Sn read from file:
     /m100/home/userexternal/lmonacel/espresso/pseudo/Sn-nc-pbesol.upf
     MD5 check sum: c2995d571af40102bfea7461443d92cf
     Pseudo is Norm-conserving + core correction, Zval = 14.0
     Generated using ONCVPSP code by D. R. Hamann
     Using radial grid of 1628 points,  6 beta functions with: 
                l(1) =   0
                l(2) =   0
                l(3) =   1
                l(4) =   1
                l(5) =   2
                l(6) =   2

     PseudoPot. # 3 for I  read from file:
     /m100/home/userexternal/lmonacel/espresso/pseudo/I-nc-pbesol.upf
     MD5 check sum: 80ed5ceb2eb9c553cfb6760a299d9c5b
     Pseudo is Norm-conserving + core correction, Zval =  7.0
     Generated using ONCVPSP code by D. R. Hamann
     Using radial grid of 1182 points,  6 beta functions with: 
                l(1) =   0
                l(2) =   0
                l(3) =   1
                l(4) =   1
                l(5) =   2
                l(6) =   2

     atomic species   valence    mass     pseudopotential
        Cs             9.00   132.90545     Cs( 1.00)
        Sn            14.00   118.71000     Sn( 1.00)
        I              7.00   126.90447     I ( 1.00)

     No symmetry found



   Cartesian axes

     site n.     atom                  positions (alat units)
         1           Cs  tau(   1) = (   0.2520326   0.2609626   0.2367716  )
         2           Sn  tau(   2) = (   0.0080011  -0.0055958   0.0093949  )
         3           I   tau(   3) = (   0.2466096  -0.0128540  -0.0019507  )
         4           I   tau(   4) = (  -0.0031648  -0.0470432   0.2654782  )
         5           I   tau(   5) = (  -0.0080189   0.2339938   0.0337763  )
         6           Cs  tau(   6) = (   0.2618839   0.2240087   0.7755805  )
         7           Sn  tau(   7) = (  -0.0040945  -0.0119934   0.5041457  )
         8           I   tau(   8) = (   0.2477400   0.0351045   0.4870329  )
         9           I   tau(   9) = (   0.0299792   0.0138841   0.7628526  )
        10           I   tau(  10) = (  -0.0393792   0.2414948   0.4387043  )
        11           Cs  tau(  11) = (   0.2256561   0.7900054   0.2384577  )
        12           Sn  tau(  12) = (   0.0027391   0.4862706   0.0119033  )
        13           I   tau(  13) = (   0.2336559   0.5027371   0.0175080  )
        14           I   tau(  14) = (  -0.0119288   0.5319795   0.2473200  )
        15           I   tau(  15) = (   0.0117245   0.7396411  -0.0424679  )
        16           Cs  tau(  16) = (   0.2315559   0.7767118   0.7471081  )
        17           Sn  tau(  17) = (   0.0061569   0.5020736   0.5151161  )
        18           I   tau(  18) = (   0.2433461   0.4998617   0.5021747  )
        19           I   tau(  19) = (   0.0018713   0.4503717   0.7564869  )
        20           I   tau(  20) = (  -0.0115256   0.7394483   0.5368252  )
        21           Cs  tau(  21) = (   0.7601319   0.2817824   0.2661497  )
        22           Sn  tau(  22) = (   0.5014780   0.0001386  -0.0115125  )
        23           I   tau(  23) = (   0.7587432  -0.0106716   0.0074109  )
        24           I   tau(  24) = (   0.5217817   0.0063369   0.2356706  )
        25           I   tau(  25) = (   0.5103367   0.2403353  -0.0151658  )
        26           Cs  tau(  26) = (   0.7360746   0.2661514   0.7018463  )
        27           Sn  tau(  27) = (   0.5033233  -0.0073590   0.4829485  )
        28           I   tau(  28) = (   0.7699886  -0.0478405   0.5050495  )
        29           I   tau(  29) = (   0.4817979   0.0097210   0.7501365  )
        30           I   tau(  30) = (   0.5446726   0.2463401   0.5013985  )
        31           Cs  tau(  31) = (   0.7837379   0.7323172   0.2507215  )
        32           Sn  tau(  32) = (   0.4931747   0.4918834  -0.0073815  )
        33           I   tau(  33) = (   0.7455265   0.5001400  -0.0391340  )
        34           I   tau(  34) = (   0.5031242   0.4957606   0.2563691  )
        35           I   tau(  35) = (   0.4862015   0.7404044   0.0268202  )
        36           Cs  tau(  36) = (   0.7550471   0.7812992   0.7802134  )
        37           Sn  tau(  37) = (   0.5010006   0.5090799   0.4940776  )
        38           I   tau(  38) = (   0.7522242   0.5457327   0.5105690  )
        39           I   tau(  39) = (   0.4875005   0.5114022   0.7583170  )
        40           I   tau(  40) = (   0.4797653   0.7483354   0.5033417  )

     number of k points=    32
                       cart. coord. in units 2pi/alat
        k(    1) = (   0.1250000   0.1250000   0.1250000), wk =   0.0625000
        k(    2) = (   0.1250000   0.1250000   0.3750000), wk =   0.0625000
        k(    3) = (   0.1250000   0.3750000   0.3750000), wk =   0.0625000
        k(    4) = (   0.3750000   0.3750000   0.3750000), wk =   0.0625000
        k(    5) = (  -0.1250000  -0.1250000   0.1250000), wk =   0.0625000
        k(    6) = (  -0.1250000   0.1250000  -0.1250000), wk =   0.0625000
        k(    7) = (   0.1250000  -0.1250000  -0.1250000), wk =   0.0625000
        k(    8) = (  -0.1250000  -0.1250000   0.3750000), wk =   0.0625000
        k(    9) = (  -0.1250000   0.1250000  -0.3750000), wk =   0.0625000
        k(   10) = (   0.1250000  -0.1250000  -0.3750000), wk =   0.0625000
        k(   11) = (   0.3750000  -0.1250000   0.1250000), wk =   0.0625000
        k(   12) = (  -0.3750000  -0.1250000  -0.1250000), wk =   0.0625000
        k(   13) = (   0.3750000   0.1250000  -0.1250000), wk =   0.0625000
        k(   14) = (  -0.3750000   0.1250000   0.1250000), wk =   0.0625000
        k(   15) = (  -0.1250000   0.3750000   0.1250000), wk =   0.0625000
        k(   16) = (  -0.1250000  -0.3750000  -0.1250000), wk =   0.0625000
        k(   17) = (   0.1250000   0.3750000  -0.1250000), wk =   0.0625000
        k(   18) = (   0.1250000  -0.3750000   0.1250000), wk =   0.0625000
        k(   19) = (  -0.1250000  -0.3750000   0.3750000), wk =   0.0625000
        k(   20) = (  -0.1250000   0.3750000  -0.3750000), wk =   0.0625000
        k(   21) = (   0.1250000  -0.3750000  -0.3750000), wk =   0.0625000
        k(   22) = (   0.3750000   0.1250000  -0.3750000), wk =   0.0625000
        k(   23) = (  -0.3750000  -0.1250000  -0.3750000), wk =   0.0625000
        k(   24) = (   0.3750000  -0.1250000   0.3750000), wk =   0.0625000
        k(   25) = (  -0.3750000   0.1250000   0.3750000), wk =   0.0625000
        k(   26) = (   0.3750000  -0.3750000   0.1250000), wk =   0.0625000
        k(   27) = (  -0.3750000  -0.3750000  -0.1250000), wk =   0.0625000
        k(   28) = (   0.3750000   0.3750000  -0.1250000), wk =   0.0625000
        k(   29) = (  -0.3750000   0.3750000   0.1250000), wk =   0.0625000
        k(   30) = (  -0.3750000  -0.3750000   0.3750000), wk =   0.0625000
        k(   31) = (  -0.3750000   0.3750000  -0.3750000), wk =   0.0625000
        k(   32) = (   0.3750000  -0.3750000  -0.3750000), wk =   0.0625000

     Dense  grid:  1061107 G-vectors     FFT dimensions: ( 128, 128, 128)

     Estimated max dynamical RAM per process >       6.82 GB

     Estimated total dynamical RAM >      27.27 GB

     Initial potential from superposition of free atoms

     starting charge  351.69472, renormalised to  352.00000
     Starting wfcs are  208 randomized atomic wfcs

     total cpu time spent up to now is       17.6 secs

     Self-consistent Calculation

     iteration #  1     ecut=    70.00 Ry     beta= 0.70
     Davidson diagonalization with overlap
     ethr =  1.00E-02,  avg # of iterations =  2.0

     Threshold (ethr) on eigenvalues was too large:
     Diagonalizing with lowered threshold

     Davidson diagonalization with overlap
     ethr =  2.21E-04,  avg # of iterations =  4.0

     total cpu time spent up to now is       38.5 secs

     total energy              =   -2256.01250181 Ry
     estimated scf accuracy    <       0.67544116 Ry

     iteration #  2     ecut=    70.00 Ry     beta= 0.70
     Davidson diagonalization with overlap
     ethr =  1.92E-04,  avg # of iterations =  3.3

     total cpu time spent up to now is       51.3 secs

     total energy              =   -2256.22285007 Ry
     estimated scf accuracy    <       0.30265905 Ry

     iteration #  3     ecut=    70.00 Ry     beta= 0.70
     Davidson diagonalization with overlap
     ethr =  8.60E-05,  avg # of iterations =  2.8

     total cpu time spent up to now is       63.0 secs

     total energy              =   -2256.28050062 Ry
     estimated scf accuracy    <       0.02046580 Ry

     iteration #  4     ecut=    70.00 Ry     beta= 0.70
     Davidson diagonalization with overlap
     ethr =  5.81E-06,  avg # of iterations =  4.2

     total cpu time spent up to now is       76.4 secs

     total energy              =   -2256.28794502 Ry
     estimated scf accuracy    <       0.00620939 Ry

     iteration #  5     ecut=    70.00 Ry     beta= 0.70
     Davidson diagonalization with overlap
     ethr =  1.76E-06,  avg # of iterations =  3.0

     total cpu time spent up to now is       88.3 secs

     total energy              =   -2256.28912356 Ry
     estimated scf accuracy    <       0.00116229 Ry

     iteration #  6     ecut=    70.00 Ry     beta= 0.70
     Davidson diagonalization with overlap
     ethr =  3.30E-07,  avg # of iterations =  3.6

     total cpu time spent up to now is      100.7 secs

     total energy              =   -2256.28932886 Ry
     estimated scf accuracy    <       0.00015172 Ry

     iteration #  7     ecut=    70.00 Ry     beta= 0.70
     Davidson diagonalization with overlap
     ethr =  4.31E-08,  avg # of iterations =  4.8

     total cpu time spent up to now is      114.7 secs

     total energy              =   -2256.28938698 Ry
     estimated scf accuracy    <       0.00001581 Ry

     iteration #  8     ecut=    70.00 Ry     beta= 0.70
     Davidson diagonalization with overlap
     ethr =  4.49E-09,  avg # of iterations =  4.0

     total cpu time spent up to now is      128.7 secs

     total energy              =   -2256.28939420 Ry
     estimated scf accuracy    <       0.00000416 Ry

     iteration #  9     ecut=    70.00 Ry     beta= 0.70
     Davidson diagonalization with overlap
     ethr =  1.18E-09,  avg # of iterations =  4.0

     total cpu time spent up to now is      142.4 secs

     total energy              =   -2256.28939553 Ry
     estimated scf accuracy    <       0.00000075 Ry

     iteration # 10     ecut=    70.00 Ry     beta= 0.70
     Davidson diagonalization with overlap
     ethr =  2.14E-10,  avg # of iterations =  3.0

     total cpu time spent up to now is      155.8 secs

     total energy              =   -2256.28939580 Ry
     estimated scf accuracy    <       0.00000014 Ry

     iteration # 11     ecut=    70.00 Ry     beta= 0.70
     Davidson diagonalization with overlap
     ethr =  3.98E-11,  avg # of iterations =  5.0

     total cpu time spent up to now is      170.6 secs

     total energy              =   -2256.28939587 Ry
     estimated scf accuracy    <       0.00000003 Ry

     iteration # 12     ecut=    70.00 Ry     beta= 0.70
     Davidson diagonalization with overlap
     ethr =  7.47E-12,  avg # of iterations =  5.8

     total cpu time spent up to now is      186.1 secs

     total energy              =   -2256.28939588 Ry
     estimated scf accuracy    <          8.5E-09 Ry

     iteration # 13     ecut=    70.00 Ry     beta= 0.70
     Davidson diagonalization with overlap
     ethr =  2.43E-12,  avg # of iterations =  3.9

     total cpu time spent up to now is      199.5 secs

     total energy              =   -2256.28939588 Ry
     estimated scf accuracy    <          7.3E-10 Ry

     iteration # 14     ecut=    70.00 Ry     beta= 0.70
     Davidson diagonalization with overlap
     ethr =  2.07E-13,  avg # of iterations =  5.3

     total cpu time spent up to now is      216.0 secs

     total energy              =   -2256.28939588 Ry
     estimated scf accuracy    <          2.8E-10 Ry

     iteration # 15     ecut=    70.00 Ry     beta= 0.70
     Davidson diagonalization with overlap
     ethr =  1.00E-13,  avg # of iterations =  3.3

     total cpu time spent up to now is      228.0 secs

     End of self-consistent calculation

          k = 0.1250 0.1250 0.1250 (132670 PWs)   bands (ev):

   -18.5597 -18.4605 -18.4546 -18.4519 -18.4490 -18.4411 -18.3884 -18.3602
   -18.3118 -18.3026 -18.2988 -18.2914 -18.2828 -18.2815 -18.2796 -18.2777
   -18.2727 -18.2716 -18.2713 -18.2709 -18.2703 -18.2693 -18.2682 -18.2679
   -18.2635 -18.2623 -18.2604 -18.2603 -18.2595 -18.2582 -18.2568 -18.2563
   -18.2508 -18.2478 -18.2478 -18.2432 -18.2304 -18.2058 -18.1983 -18.1961
   -18.1949 -18.1927 -18.1903 -18.1828 -18.1810 -18.1756 -18.1722 -18.1495
    -9.4758  -9.3732  -9.2669  -9.2421  -9.1509  -9.1406  -9.0566  -9.0229
    -9.0094  -8.9724  -8.9477  -8.9269  -8.9163  -8.8910  -8.8698  -8.8226
    -8.7922  -8.7677  -8.7283  -8.7101  -8.6587  -8.6443  -8.5561  -8.4963
    -5.3236  -5.3133  -5.3081  -5.1854  -5.1677  -5.1594  -5.1574  -5.1409
    -5.1372  -5.0958  -5.0945  -5.0839  -5.0724  -5.0535  -5.0490  -5.0466
    -5.0389  -5.0336  -5.0307  -5.0206  -5.0089  -4.9624  -4.9516  -4.9355
    -4.4654  -3.9910  -3.9358  -3.9021  -3.4345  -3.3959  -3.3469  -2.7635
    -0.7619  -0.7060  -0.6521  -0.6089  -0.5840  -0.5336  -0.5145  -0.4643
    -0.4315  -0.3395  -0.2775  -0.2465   0.4484   0.4766   0.4980   0.5533
     0.6479   0.6712   0.7033   0.7349   0.8333   0.8666   0.8978   0.9585
     1.0016   1.0456   1.0613   1.0968   1.1312   1.1601   1.1784   1.1831
     1.2399   1.2565   1.2871   1.2993   1.3095   1.3367   1.3639   1.3886
     1.4099   1.4269   1.4451   1.4556   1.4714   1.4999   1.5374   1.5507
     1.5837   1.5962   1.6203   1.6406   1.6511   1.6648   1.6947   1.7021
     1.7333   1.7620   1.7970   1.8855   1.9565   1.9688   2.0396   2.0861
     2.1031   2.1391   2.2211   2.2465   2.5881   2.6509   2.6920   3.0831

          k = 0.1250 0.1250 0.3750 (132608 PWs)   bands (ev):

   -18.5597 -18.4605 -18.4546 -18.4519 -18.4490 -18.4411 -18.3884 -18.3602
   -18.3118 -18.3026 -18.2988 -18.2914 -18.2828 -18.2815 -18.2796 -18.2777
   -18.2727 -18.2716 -18.2713 -18.2709 -18.2703 -18.2693 -18.2682 -18.2679
   -18.2635 -18.2623 -18.2604 -18.2603 -18.2595 -18.2582 -18.2568 -18.2563
   -18.2508 -18.2478 -18.2478 -18.2432 -18.2304 -18.2058 -18.1983 -18.1961
   -18.1949 -18.1927 -18.1903 -18.1828 -18.1810 -18.1756 -18.1722 -18.1495
    -9.4556  -9.3977  -9.2510  -9.2302  -9.1799  -9.1535  -9.0672  -9.0205
    -8.9982  -8.9865  -8.9408  -8.9262  -8.9118  -8.8841  -8.8607  -8.8137
    -8.7900  -8.7631  -8.7384  -8.7005  -8.6659  -8.6436  -8.5627  -8.4971
    -5.3235  -5.3133  -5.3081  -5.1849  -5.1672  -5.1590  -5.1581  -5.1411
    -5.1374  -5.0956  -5.0946  -5.0841  -5.0722  -5.0534  -5.0490  -5.0467
    -5.0381  -5.0350  -5.0311  -5.0213  -5.0078  -4.9622  -4.9517  -4.9357
    -4.3375  -4.1249  -3.8212  -3.7955  -3.5939  -3.5733  -3.2427  -2.9934
    -0.7184  -0.6414  -0.6096  -0.5614  -0.5359  -0.4819  -0.3683  -0.3366
    -0.1820  -0.0963  -0.0480   0.0499   0.3379   0.4558   0.4813   0.5090
     0.5248   0.5761   0.6165   0.6514   0.6830   0.7498   0.7743   0.8146
     0.8961   0.9071   1.0253   1.0315   1.0878   1.1151   1.1397   1.1731
     1.2059   1.2473   1.2969   1.3072   1.3285   1.3490   1.3748   1.3911
     1.4159   1.4456   1.4502   1.4912   1.5098   1.5187   1.5394   1.5694
     1.5916   1.6122   1.6329   1.6557   1.6705   1.6834   1.7049   1.7300
     1.7483   1.7755   1.7844   1.8024   1.8664   1.8821   1.9630   2.0211
     2.0746   2.1165   2.1799   2.2745   2.3546   2.4307   2.6535   2.8250

          k = 0.1250 0.3750 0.3750 (132616 PWs)   bands (ev):

   -18.5597 -18.4605 -18.4546 -18.4519 -18.4490 -18.4411 -18.3884 -18.3602
   -18.3118 -18.3026 -18.2988 -18.2914 -18.2828 -18.2815 -18.2796 -18.2777
   -18.2727 -18.2715 -18.2713 -18.2709 -18.2703 -18.2693 -18.2682 -18.2679
   -18.2635 -18.2623 -18.2604 -18.2603 -18.2595 -18.2582 -18.2568 -18.2563
   -18.2508 -18.2478 -18.2478 -18.2432 -18.2304 -18.2058 -18.1983 -18.1961
   -18.1949 -18.1927 -18.1903 -18.1828 -18.1810 -18.1756 -18.1722 -18.1495
    -9.4485  -9.3930  -9.2651  -9.2205  -9.1879  -9.1548  -9.0776  -9.0313
    -9.0116  -8.9838  -8.9388  -8.9182  -8.9061  -8.8826  -8.8435  -8.8114
    -8.7863  -8.7613  -8.7327  -8.6944  -8.6737  -8.6532  -8.5628  -8.4999
    -5.3234  -5.3133  -5.3080  -5.1852  -5.1667  -5.1588  -5.1585  -5.1408
    -5.1372  -5.0956  -5.0942  -5.0841  -5.0726  -5.0536  -5.0491  -5.0474
    -5.0375  -5.0351  -5.0312  -5.0216  -5.0075  -4.9632  -4.9511  -4.9359
    -4.2355  -4.0627  -3.9024  -3.7402  -3.6979  -3.5284  -3.3447  -3.1667
    -0.7022  -0.5932  -0.5699  -0.4791  -0.3424  -0.2825  -0.2108  -0.1260
    -0.1043   0.0017   0.0629   0.1245   0.2930   0.3901   0.4578   0.4752
     0.5148   0.5434   0.5663   0.6018   0.6340   0.6743   0.6995   0.7395
     0.8083   0.8765   0.9311   0.9853   1.0205   1.0447   1.0967   1.1162
     1.1509   1.1925   1.2369   1.2709   1.2967   1.3197   1.3477   1.3616
     1.3916   1.4190   1.4572   1.5048   1.5263   1.5481   1.5720   1.5930
     1.6216   1.6335   1.6702   1.6861   1.6935   1.7066   1.7262   1.7491
     1.7763   1.7965   1.7996   1.8252   1.8538   1.8801   1.9061   1.9584
     2.0059   2.0175   2.1009   2.1464   2.2754   2.3830   2.4669   2.5941

          k = 0.3750 0.3750 0.3750 (132612 PWs)   bands (ev):

   -18.5597 -18.4605 -18.4546 -18.4519 -18.4490 -18.4411 -18.3884 -18.3602
   -18.3118 -18.3026 -18.2988 -18.2914 -18.2828 -18.2815 -18.2796 -18.2777
   -18.2727 -18.2715 -18.2713 -18.2709 -18.2703 -18.2693 -18.2682 -18.2679
   -18.2635 -18.2623 -18.2604 -18.2603 -18.2595 -18.2582 -18.2568 -18.2563
   -18.2508 -18.2478 -18.2478 -18.2432 -18.2304 -18.2058 -18.1982 -18.1961
   -18.1950 -18.1927 -18.1903 -18.1828 -18.1810 -18.1756 -18.1722 -18.1495
    -9.4414  -9.3858  -9.2626  -9.2291  -9.2065  -9.1595  -9.0731  -9.0465
    -9.0115  -8.9824  -8.9369  -8.9211  -8.8961  -8.8678  -8.8463  -8.8072
    -8.7753  -8.7608  -8.7311  -8.6987  -8.6776  -8.6559  -8.5617  -8.5042
    -5.3235  -5.3133  -5.3081  -5.1852  -5.1666  -5.1587  -5.1584  -5.1408
    -5.1374  -5.0958  -5.0943  -5.0841  -5.0725  -5.0535  -5.0491  -5.0473
    -5.0374  -5.0348  -5.0314  -5.0217  -5.0074  -4.9627  -4.9510  -4.9357
    -4.1093  -3.9556  -3.8846  -3.7700  -3.7084  -3.6021  -3.5209  -3.3470
    -0.4379  -0.3883  -0.3200  -0.2813  -0.2584  -0.1988  -0.1749  -0.0965
    -0.0552   0.0242   0.0977   0.1961   0.2934   0.3498   0.3778   0.4466
     0.4634   0.4974   0.5207   0.5527   0.5777   0.6167   0.6482   0.6719
     0.8160   0.8549   0.9245   0.9385   0.9610   1.0249   1.0337   1.0721
     1.1149   1.1392   1.1600   1.1849   1.2290   1.2582   1.3089   1.3290
     1.3689   1.4245   1.4471   1.4901   1.5326   1.5371   1.5636   1.5785
     1.6422   1.6739   1.6923   1.7053   1.7195   1.7386   1.7616   1.7811
     1.8034   1.8195   1.8324   1.8451   1.8780   1.8942   1.9016   1.9164
     1.9535   1.9991   2.0376   2.0818   2.0864   2.1335   2.2488   2.3133

          k =-0.1250-0.1250 0.1250 (132670 PWs)   bands (ev):

   -18.5597 -18.4605 -18.4546 -18.4519 -18.4490 -18.4411 -18.3884 -18.3602
   -18.3118 -18.3026 -18.2988 -18.2914 -18.2828 -18.2815 -18.2796 -18.2777
   -18.2727 -18.2716 -18.2713 -18.2709 -18.2703 -18.2693 -18.2682 -18.2679
   -18.2635 -18.2623 -18.2604 -18.2603 -18.2595 -18.2582 -18.2568 -18.2563
   -18.2508 -18.2478 -18.2478 -18.2432 -18.2304 -18.2058 -18.1983 -18.1961
   -18.1949 -18.1927 -18.1903 -18.1828 -18.1810 -18.1756 -18.1722 -18.1495
    -9.4750  -9.3757  -9.2665  -9.2378  -9.1650  -9.1245  -9.0633  -9.0220
    -9.0127  -8.9713  -8.9389  -8.9277  -8.9227  -8.8924  -8.8676  -8.8201
    -8.7925  -8.7685  -8.7299  -8.7097  -8.6583  -8.6442  -8.5563  -8.4963
    -5.3237  -5.3133  -5.3080  -5.1850  -5.1678  -5.1596  -5.1577  -5.1407
    -5.1371  -5.0959  -5.0945  -5.0838  -5.0722  -5.0536  -5.0492  -5.0467
    -5.0390  -5.0339  -5.0306  -5.0205  -5.0088  -4.9622  -4.9515  -4.9355
    -4.4642  -4.0038  -3.9339  -3.8904  -3.4479  -3.3973  -3.3334  -2.7637
    -0.7673  -0.6981  -0.6681  -0.6208  -0.5823  -0.5463  -0.4947  -0.4675
    -0.4010  -0.3631  -0.2768  -0.2277   0.4461   0.4688   0.5072   0.5590
     0.6410   0.6710   0.6935   0.7366   0.8353   0.8892   0.9221   0.9479
     0.9710   1.0309   1.0692   1.0993   1.1199   1.1452   1.1799   1.2130
     1.2299   1.2438   1.2748   1.2910   1.3163   1.3505   1.3622   1.3868
     1.4255   1.4396   1.4442   1.4658   1.4937   1.5159   1.5191   1.5505
     1.5753   1.5973   1.6182   1.6223   1.6373   1.6707   1.6871   1.6980
     1.7373   1.7629   1.7929   1.8881   1.9478   1.9708   2.0291   2.0882
     2.1053   2.1350   2.2278   2.2516   2.5939   2.6497   2.6995   3.0970

          k =-0.1250 0.1250-0.1250 (132670 PWs)   bands (ev):

   -18.5597 -18.4605 -18.4546 -18.4519 -18.4490 -18.4411 -18.3884 -18.3602
   -18.3118 -18.3026 -18.2988 -18.2914 -18.2828 -18.2815 -18.2796 -18.2777
   -18.2727 -18.2716 -18.2713 -18.2709 -18.2703 -18.2693 -18.2682 -18.2679
   -18.2635 -18.2623 -18.2604 -18.2603 -18.2595 -18.2582 -18.2568 -18.2563
   -18.2508 -18.2478 -18.2478 -18.2432 -18.2304 -18.2058 -18.1983 -18.1961
   -18.1949 -18.1927 -18.1903 -18.1828 -18.1810 -18.1756 -18.1722 -18.1495
    -9.4757  -9.3731  -9.2683  -9.2420  -9.1506  -9.1360  -9.0594  -9.0272
    -9.0147  -8.9670  -8.9400  -8.9266  -8.9187  -8.8907  -8.8701  -8.8273
    -8.7847  -8.7735  -8.7292  -8.7094  -8.6577  -8.6446  -8.5560  -8.4963
    -5.3237  -5.3133  -5.3081  -5.1851  -5.1680  -5.1595  -5.1576  -5.1407
    -5.1372  -5.0958  -5.0945  -5.0837  -5.0726  -5.0533  -5.0493  -5.0466
    -5.0391  -5.0338  -5.0307  -5.0205  -5.0089  -4.9622  -4.9515  -4.9355
    -4.4641  -3.9961  -3.9490  -3.8830  -3.4479  -3.3989  -3.3305  -2.7659
    -0.7591  -0.6996  -0.6583  -0.6241  -0.5918  -0.5359  -0.4834  -0.4642
    -0.4295  -0.3549  -0.2727  -0.2447   0.4499   0.4711   0.5037   0.5484
     0.6469   0.6795   0.6919   0.7339   0.8281   0.8862   0.9087   0.9381
     0.9886   1.0526   1.0624   1.1118   1.1235   1.1492   1.1719   1.1995
     1.2179   1.2603   1.2795   1.2931   1.3302   1.3471   1.3690   1.3883
     1.4095   1.4376   1.4490   1.4583   1.4833   1.5112   1.5322   1.5484
     1.5771   1.5943   1.6070   1.6314   1.6539   1.6688   1.6911   1.7013
     1.7232   1.7612   1.7890   1.8868   1.9516   1.9774   2.0478   2.0662
     2.1067   2.1336   2.2257   2.2582   2.5833   2.6588   2.6990   3.0820

          k = 0.1250-0.1250-0.1250 (132670 PWs)   bands (ev):

   -18.5597 -18.4605 -18.4546 -18.4519 -18.4490 -18.4411 -18.3884 -18.3602
   -18.3118 -18.3026 -18.2988 -18.2914 -18.2828 -18.2815 -18.2796 -18.2777
   -18.2727 -18.2716 -18.2713 -18.2709 -18.2703 -18.2693 -18.2682 -18.2679
   -18.2635 -18.2623 -18.2604 -18.2603 -18.2595 -18.2582 -18.2568 -18.2563
   -18.2508 -18.2478 -18.2478 -18.2432 -18.2304 -18.2058 -18.1983 -18.1961
   -18.1949 -18.1927 -18.1903 -18.1828 -18.1810 -18.1756 -18.1722 -18.1495
    -9.4752  -9.3751  -9.2685  -9.2356  -9.1585  -9.1357  -9.0664  -9.0160
    -9.0007  -8.9754  -8.9483  -8.9269  -8.9212  -8.8934  -8.8669  -8.8221
    -8.7865  -8.7721  -8.7329  -8.7059  -8.6585  -8.6447  -8.5561  -8.4963
    -5.3236  -5.3133  -5.3081  -5.1853  -5.1675  -5.1595  -5.1576  -5.1409
    -5.1371  -5.0959  -5.0944  -5.0836  -5.0727  -5.0535  -5.0491  -5.0466
    -5.0389  -5.0337  -5.0307  -5.0206  -5.0088  -4.9623  -4.9515  -4.9356
    -4.4654  -3.9831  -3.9533  -3.8922  -3.4350  -3.3993  -3.3429  -2.7639
    -0.7562  -0.7099  -0.6454  -0.6053  -0.5941  -0.5310  -0.5209  -0.4818
    -0.4147  -0.3448  -0.2733  -0.2409   0.4426   0.4722   0.5011   0.5597
     0.6484   0.6724   0.7004   0.7383   0.8369   0.8534   0.9157   0.9715
     0.9833   1.0361   1.0548   1.1081   1.1254   1.1546   1.1767   1.1938
     1.2307   1.2611   1.2791   1.2975   1.3247   1.3359   1.3689   1.3848
     1.4074   1.4238   1.4462   1.4566   1.4906   1.5071   1.5327   1.5476
     1.5795   1.5917   1.6082   1.6213   1.6469   1.6689   1.6961   1.7080
     1.7341   1.7765   1.7979   1.8815   1.9574   1.9669   2.0485   2.0844
     2.1125   2.1339   2.2075   2.2554   2.5787   2.6634   2.6898   3.0824

          k =-0.1250-0.1250 0.3750 (132608 PWs)   bands (ev):

   -18.5597 -18.4605 -18.4546 -18.4519 -18.4490 -18.4411 -18.3884 -18.3602
   -18.3118 -18.3026 -18.2988 -18.2914 -18.2828 -18.2815 -18.2796 -18.2777
   -18.2727 -18.2716 -18.2713 -18.2709 -18.2703 -18.2693 -18.2682 -18.2679
   -18.2635 -18.2623 -18.2604 -18.2603 -18.2595 -18.2582 -18.2568 -18.2563
   -18.2508 -18.2478 -18.2478 -18.2432 -18.2304 -18.2058 -18.1983 -18.1961
   -18.1949 -18.1927 -18.1903 -18.1828 -18.1810 -18.1756 -18.1722 -18.1495
    -9.4540  -9.4008  -9.2514  -9.2184  -9.1969  -9.1434  -9.0703  -9.0196
    -9.0049  -8.9818  -8.9371  -8.9249  -8.9173  -8.8838  -8.8606  -8.8088
    -8.7900  -8.7660  -8.7399  -8.7000  -8.6655  -8.6436  -8.5628  -8.4971
    -5.3235  -5.3133  -5.3080  -5.1845  -5.1674  -5.1592  -5.1584  -5.1409
    -5.1374  -5.0956  -5.0945  -5.0841  -5.0720  -5.0535  -5.0492  -5.0467
    -5.0380  -5.0354  -5.0310  -5.0212  -5.0077  -4.9621  -4.9516  -4.9358
    -4.3334  -4.1342  -3.8148  -3.7897  -3.6020  -3.5772  -3.2350  -2.9956
    -0.7217  -0.6406  -0.6104  -0.5643  -0.5442  -0.4846  -0.3765  -0.3265
    -0.1728  -0.0978  -0.0363   0.0676   0.3176   0.4570   0.4749   0.5155
     0.5392   0.5838   0.6079   0.6468   0.6871   0.7288   0.7962   0.8274
     0.8722   0.8984   0.9995   1.0415   1.0743   1.1372   1.1528   1.1823
     1.1996   1.2387   1.2773   1.3091   1.3265   1.3494   1.3885   1.3964
     1.4154   1.4446   1.4697   1.4864   1.5057   1.5289   1.5422   1.5740
     1.5939   1.6138   1.6326   1.6470   1.6590   1.6793   1.7052   1.7130
     1.7392   1.7724   1.7886   1.8066   1.8718   1.8789   1.9641   2.0263
     2.0626   2.1159   2.1887   2.2800   2.3845   2.4015   2.6542   2.8371

          k =-0.1250 0.1250-0.3750 (132608 PWs)   bands (ev):

   -18.5597 -18.4605 -18.4546 -18.4519 -18.4490 -18.4411 -18.3884 -18.3602
   -18.3118 -18.3026 -18.2988 -18.2914 -18.2828 -18.2815 -18.2796 -18.2777
   -18.2727 -18.2716 -18.2713 -18.2709 -18.2703 -18.2693 -18.2682 -18.2679
   -18.2635 -18.2623 -18.2604 -18.2603 -18.2595 -18.2582 -18.2568 -18.2563
   -18.2508 -18.2478 -18.2478 -18.2432 -18.2304 -18.2058 -18.1983 -18.1961
   -18.1949 -18.1927 -18.1903 -18.1828 -18.1810 -18.1756 -18.1722 -18.1495
    -9.4554  -9.3981  -9.2516  -9.2288  -9.1847  -9.1470  -9.0644  -9.0278
    -9.0125  -8.9691  -8.9378  -8.9246  -8.9160  -8.8846  -8.8593  -8.8187
    -8.7851  -8.7659  -8.7376  -8.7020  -8.6645  -8.6439  -8.5626  -8.4971
    -5.3235  -5.3133  -5.3081  -5.1845  -5.1676  -5.1591  -5.1583  -5.1409
    -5.1374  -5.0956  -5.0945  -5.0839  -5.0724  -5.0533  -5.0493  -5.0467
    -5.0382  -5.0352  -5.0310  -5.0211  -5.0078  -4.9621  -4.9516  -4.9357
    -4.3333  -4.1332  -3.8234  -3.7825  -3.6054  -3.5719  -3.2346  -2.9981
    -0.7185  -0.6372  -0.6055  -0.5652  -0.5435  -0.4839  -0.3624  -0.3402
    -0.1822  -0.1025  -0.0393   0.0592   0.3333   0.4602   0.4727   0.5099
     0.5286   0.5721   0.6140   0.6521   0.6880   0.7415   0.7812   0.8175
     0.8881   0.9119   0.9945   1.0464   1.0711   1.1226   1.1431   1.1863
     1.2080   1.2600   1.2835   1.3079   1.3311   1.3604   1.3670   1.3940
     1.4067   1.4491   1.4615   1.4866   1.5019   1.5449   1.5587   1.5681
     1.5922   1.6140   1.6264   1.6524   1.6637   1.6832   1.6897   1.7163
     1.7307   1.7671   1.7842   1.8069   1.8647   1.8914   1.9666   2.0364
     2.0637   2.1116   2.1784   2.2850   2.3771   2.4237   2.6438   2.8239

          k = 0.1250-0.1250-0.3750 (132608 PWs)   bands (ev):

   -18.5597 -18.4605 -18.4546 -18.4519 -18.4490 -18.4411 -18.3884 -18.3602
   -18.3118 -18.3026 -18.2988 -18.2914 -18.2828 -18.2815 -18.2796 -18.2777
   -18.2727 -18.2716 -18.2713 -18.2709 -18.2703 -18.2693 -18.2682 -18.2679
   -18.2635 -18.2623 -18.2604 -18.2603 -18.2595 -18.2582 -18.2568 -18.2563
   -18.2508 -18.2478 -18.2478 -18.2432 -18.2304 -18.2058 -18.1983 -18.1961
   -18.1949 -18.1927 -18.1903 -18.1828 -18.1810 -18.1756 -18.1722 -18.1495
    -9.4543  -9.4005  -9.2510  -9.2196  -9.1914  -9.1525  -9.0676  -9.0150
    -9.0068  -8.9756  -8.9428  -8.9259  -8.9180  -8.8859  -8.8606  -8.8080
    -8.7880  -8.7664  -8.7411  -8.6980  -8.6662  -8.6439  -8.5628  -8.4971
    -5.3235  -5.3133  -5.3081  -5.1848  -5.1671  -5.1591  -5.1583  -5.1412
    -5.1374  -5.0956  -5.0945  -5.0838  -5.0725  -5.0535  -5.0491  -5.0467
    -5.0380  -5.0353  -5.0310  -5.0212  -5.0077  -4.9622  -4.9517  -4.9358
    -4.3373  -4.1250  -3.8284  -3.7879  -3.5996  -3.5669  -3.2444  -2.9929
    -0.7174  -0.6377  -0.6038  -0.5535  -0.5371  -0.4983  -0.3765  -0.3506
    -0.1693  -0.0891  -0.0398   0.0530   0.3267   0.4406   0.4884   0.5168
     0.5437   0.5687   0.6151   0.6446   0.6855   0.7340   0.7937   0.8324
     0.8812   0.9120   0.9900   1.0215   1.0794   1.1189   1.1473   1.1888
     1.2292   1.2620   1.2723   1.3131   1.3271   1.3531   1.3659   1.3922
     1.4195   1.4522   1.4632   1.4772   1.5029   1.5075   1.5393   1.5712
     1.5865   1.6064   1.6270   1.6504   1.6681   1.6868   1.7089   1.7377
     1.7521   1.7709   1.7958   1.8022   1.8663   1.8811   1.9663   2.0402
     2.0611   2.1211   2.1695   2.2824   2.3615   2.4267   2.6407   2.8265

          k = 0.3750-0.1250 0.1250 (132608 PWs)   bands (ev):

   -18.5597 -18.4605 -18.4546 -18.4519 -18.4490 -18.4411 -18.3884 -18.3602
   -18.3118 -18.3026 -18.2988 -18.2914 -18.2828 -18.2815 -18.2796 -18.2777
   -18.2727 -18.2716 -18.2713 -18.2709 -18.2703 -18.2693 -18.2682 -18.2679
   -18.2635 -18.2623 -18.2604 -18.2603 -18.2595 -18.2582 -18.2568 -18.2563
   -18.2508 -18.2478 -18.2478 -18.2432 -18.2304 -18.2058 -18.1982 -18.1961
   -18.1950 -18.1927 -18.1903 -18.1828 -18.1810 -18.1756 -18.1722 -18.1495
    -9.4631  -9.3794  -9.2645  -9.2454  -9.1692  -9.1405  -9.0731  -9.0190
    -9.0020  -8.9672  -8.9510  -8.9307  -8.9177  -8.8811  -8.8700  -8.8104
    -8.7855  -8.7585  -8.7303  -8.7115  -8.6622  -8.6486  -8.5562  -8.5018
    -5.3236  -5.3132  -5.3080  -5.1849  -5.1676  -5.1591  -5.1579  -5.1405
    -5.1371  -5.0957  -5.0941  -5.0832  -5.0729  -5.0536  -5.0496  -5.0467
    -5.0389  -5.0339  -5.0311  -5.0208  -5.0090  -4.9620  -4.9515  -4.9354
    -4.3346  -4.1205  -3.8643  -3.7677  -3.6252  -3.5233  -3.2686  -2.9750
    -0.6914  -0.6536  -0.6183  -0.5647  -0.4964  -0.4626  -0.4367  -0.3477
    -0.1762  -0.1428  -0.0289   0.0208   0.4124   0.4230   0.5091   0.5354
     0.5819   0.5992   0.6223   0.6404   0.6556   0.6957   0.7712   0.8341
     0.8982   0.9139   0.9857   1.0304   1.0695   1.0926   1.1159   1.1807
     1.1997   1.2219   1.2753   1.3202   1.3319   1.3544   1.3784   1.4073
     1.4238   1.4377   1.4540   1.4782   1.4968   1.5017   1.5386   1.5756
     1.6010   1.6206   1.6285   1.6596   1.6756   1.6871   1.7087   1.7274
     1.7497   1.7708   1.8163   1.8594   1.8849   1.9315   1.9752   2.0303
     2.0691   2.1150   2.1503   2.2357   2.3101   2.4335   2.6793   2.8265

          k =-0.3750-0.1250-0.1250 (132608 PWs)   bands (ev):

   -18.5597 -18.4605 -18.4546 -18.4519 -18.4490 -18.4411 -18.3884 -18.3602
   -18.3118 -18.3026 -18.2988 -18.2914 -18.2828 -18.2815 -18.2796 -18.2777
   -18.2727 -18.2716 -18.2713 -18.2709 -18.2703 -18.2693 -18.2682 -18.2679
   -18.2635 -18.2623 -18.2604 -18.2603 -18.2595 -18.2582 -18.2568 -18.2563
   -18.2508 -18.2478 -18.2478 -18.2432 -18.2304 -18.2058 -18.1982 -18.1961
   -18.1950 -18.1927 -18.1903 -18.1828 -18.1810 -18.1756 -18.1722 -18.1495
    -9.4632  -9.3796  -9.2647  -9.2416  -9.1769  -9.1410  -9.0612  -9.0199
    -9.0047  -8.9703  -8.9563  -8.9294  -8.9155  -8.8805  -8.8709  -8.8069
    -8.7872  -8.7587  -8.7287  -8.7122  -8.6634  -8.6481  -8.5565  -8.5016
    -5.3236  -5.3133  -5.3080  -5.1852  -5.1673  -5.1590  -5.1578  -5.1407
    -5.1371  -5.0958  -5.0942  -5.0833  -5.0728  -5.0539  -5.0494  -5.0467
    -5.0388  -5.0337  -5.0311  -5.0209  -5.0090  -4.9621  -4.9516  -4.9354
    -4.3359  -4.1216  -3.8543  -3.7751  -3.6124  -3.5380  -3.2703  -2.9715
    -0.6935  -0.6560  -0.6036  -0.5712  -0.4805  -0.4675  -0.4415  -0.3661
    -0.1834  -0.1398  -0.0148   0.0202   0.4123   0.4345   0.5115   0.5241
     0.5695   0.6012   0.6184   0.6472   0.6590   0.6974   0.7819   0.8181
     0.8865   0.9236   0.9881   1.0418   1.0616   1.1043   1.1255   1.1853
     1.1884   1.2197   1.2894   1.3083   1.3367   1.3470   1.3667   1.3902
     1.4141   1.4263   1.4463   1.4802   1.4920   1.5168   1.5463   1.5790
     1.5909   1.6204   1.6418   1.6637   1.6716   1.6927   1.7052   1.7345
     1.7703   1.7827   1.8163   1.8647   1.8826   1.9224   1.9719   2.0261
     2.0600   2.1041   2.1614   2.2405   2.3558   2.3856   2.6645   2.8326

          k = 0.3750 0.1250-0.1250 (132608 PWs)   bands (ev):

   -18.5597 -18.4605 -18.4546 -18.4519 -18.4490 -18.4411 -18.3884 -18.3602
   -18.3118 -18.3026 -18.2988 -18.2914 -18.2828 -18.2815 -18.2796 -18.2777
   -18.2727 -18.2716 -18.2713 -18.2709 -18.2703 -18.2693 -18.2682 -18.2679
   -18.2635 -18.2623 -18.2604 -18.2603 -18.2595 -18.2582 -18.2568 -18.2563
   -18.2508 -18.2478 -18.2478 -18.2432 -18.2304 -18.2058 -18.1982 -18.1961
   -18.1950 -18.1927 -18.1903 -18.1828 -18.1810 -18.1756 -18.1722 -18.1495
    -9.4621  -9.3826  -9.2614  -9.2410  -9.1817  -9.1332  -9.0737  -9.0165
    -8.9972  -8.9756  -8.9494  -8.9303  -8.9220  -8.8831  -8.8668  -8.8012
    -8.7914  -8.7587  -8.7310  -8.7109  -8.6630  -8.6482  -8.5565  -8.5017
    -5.3236  -5.3133  -5.3080  -5.1848  -5.1674  -5.1592  -5.1580  -5.1405
    -5.1370  -5.0958  -5.0942  -5.0834  -5.0725  -5.0539  -5.0496  -5.0467
    -5.0388  -5.0340  -5.0310  -5.0208  -5.0089  -4.9620  -4.9515  -4.9355
    -4.3347  -4.1211  -3.8648  -3.7649  -3.6270  -3.5229  -3.2716  -2.9716
    -0.6973  -0.6638  -0.5957  -0.5763  -0.4987  -0.4626  -0.4281  -0.3721
    -0.1801  -0.1300  -0.0024   0.0237   0.4046   0.4279   0.5153   0.5366
     0.5667   0.5866   0.6160   0.6531   0.6658   0.7158   0.7511   0.8371
     0.8947   0.9143   0.9985   1.0113   1.0430   1.0938   1.1321   1.1681
     1.2115   1.2340   1.2768   1.3027   1.3350   1.3557   1.3761   1.4075
     1.4141   1.4384   1.4517   1.4758   1.5085   1.5163   1.5525   1.5718
     1.5903   1.6124   1.6246   1.6490   1.6751   1.6918   1.6998   1.7273
     1.7686   1.7793   1.8211   1.8599   1.8754   1.9229   1.9788   2.0326
     2.0611   2.1055   2.1611   2.2338   2.3431   2.4050   2.6795   2.8369

          k =-0.3750 0.1250 0.1250 (132608 PWs)   bands (ev):

   -18.5597 -18.4605 -18.4546 -18.4519 -18.4490 -18.4411 -18.3884 -18.3602
   -18.3118 -18.3026 -18.2988 -18.2914 -18.2828 -18.2815 -18.2796 -18.2777
   -18.2727 -18.2716 -18.2713 -18.2709 -18.2703 -18.2693 -18.2682 -18.2679
   -18.2635 -18.2623 -18.2604 -18.2603 -18.2595 -18.2582 -18.2568 -18.2563
   -18.2508 -18.2478 -18.2478 -18.2432 -18.2304 -18.2058 -18.1982 -18.1961
   -18.1950 -18.1927 -18.1903 -18.1828 -18.1810 -18.1756 -18.1722 -18.1495
    -9.4624  -9.3821  -9.2643  -9.2366  -9.1806  -9.1409  -9.0687  -9.0082
    -9.0020  -8.9730  -8.9598  -8.9280  -8.9193  -8.8827  -8.8691  -8.8026
    -8.7875  -8.7590  -8.7353  -8.7074  -8.6630  -8.6486  -8.5565  -8.5017
    -5.3236  -5.3133  -5.3080  -5.1851  -5.1671  -5.1591  -5.1579  -5.1407
    -5.1370  -5.0958  -5.0940  -5.0831  -5.0731  -5.0538  -5.0494  -5.0467
    -5.0387  -5.0338  -5.0311  -5.0209  -5.0089  -4.9621  -4.9515  -4.9355
    -4.3357  -4.1222  -3.8532  -3.7763  -3.6111  -3.5397  -3.2687  -2.9723
    -0.6920  -0.6464  -0.6090  -0.5648  -0.4932  -0.4776  -0.4344  -0.3767
    -0.1713  -0.1353  -0.0133   0.0231   0.4014   0.4184   0.5159   0.5408
     0.5808   0.5958   0.6167   0.6412   0.6641   0.7227   0.7399   0.8427
     0.8857   0.9279   0.9738   1.0232   1.0538   1.1242   1.1305   1.1774
     1.1978   1.2173   1.2832   1.3094   1.3298   1.3504   1.3728   1.3864
     1.4141   1.4373   1.4619   1.4732   1.4869   1.5092   1.5468   1.5813
     1.5913   1.6116   1.6398   1.6631   1.6833   1.6909   1.7154   1.7267
     1.7529   1.7781   1.8188   1.8622   1.8818   1.9353   1.9805   2.0276
     2.0729   2.1078   2.1598   2.2268   2.3215   2.4121   2.6731   2.8269

          k =-0.1250 0.3750 0.1250 (132608 PWs)   bands (ev):

   -18.5597 -18.4605 -18.4546 -18.4519 -18.4490 -18.4411 -18.3884 -18.3602
   -18.3118 -18.3026 -18.2988 -18.2914 -18.2828 -18.2815 -18.2796 -18.2777
   -18.2727 -18.2716 -18.2713 -18.2709 -18.2703 -18.2693 -18.2682 -18.2679
   -18.2635 -18.2623 -18.2604 -18.2603 -18.2595 -18.2582 -18.2568 -18.2563
   -18.2508 -18.2478 -18.2478 -18.2432 -18.2304 -18.2058 -18.1983 -18.1961
   -18.1949 -18.1927 -18.1903 -18.1828 -18.1810 -18.1756 -18.1722 -18.1495
    -9.4657  -9.3765  -9.2793  -9.2177  -9.1733  -9.1478  -9.0767  -9.0147
    -9.0015  -8.9735  -8.9540  -8.9316  -8.9057  -8.8924  -8.8630  -8.8192
    -8.7749  -8.7656  -8.7294  -8.6949  -8.6705  -8.6542  -8.5579  -8.4990
    -5.3235  -5.3133  -5.3080  -5.1850  -5.1667  -5.1593  -5.1581  -5.1413
    -5.1372  -5.0960  -5.0941  -5.0837  -5.0728  -5.0533  -5.0488  -5.0473
    -5.0388  -5.0337  -5.0311  -5.0210  -5.0087  -4.9631  -4.9512  -4.9358
    -4.3521  -4.1241  -3.8392  -3.7864  -3.5939  -3.5585  -3.2193  -2.9719
    -0.7472  -0.6884  -0.6111  -0.5882  -0.5488  -0.4866  -0.4557  -0.3649
    -0.1292  -0.0744  -0.0281   0.0278   0.3742   0.4407   0.4950   0.5504
     0.5871   0.5905   0.6335   0.6547   0.6737   0.7151   0.7791   0.7946
     0.8951   0.9338   0.9569   1.0270   1.0953   1.1210   1.1452   1.1798
     1.2061   1.2372   1.2752   1.3103   1.3209   1.3624   1.3845   1.3975
     1.4167   1.4473   1.4602   1.4866   1.5046   1.5236   1.5423   1.5559
     1.5804   1.5943   1.6259   1.6461   1.6676   1.7021   1.7190   1.7414
     1.7627   1.7745   1.8165   1.8465   1.8932   1.9406   1.9842   2.0003
     2.0207   2.1006   2.1731   2.2776   2.3903   2.4268   2.6896   2.8443

          k =-0.1250-0.3750-0.1250 (132608 PWs)   bands (ev):

   -18.5597 -18.4605 -18.4546 -18.4519 -18.4490 -18.4411 -18.3884 -18.3602
   -18.3118 -18.3026 -18.2988 -18.2914 -18.2828 -18.2815 -18.2796 -18.2777
   -18.2727 -18.2716 -18.2713 -18.2709 -18.2703 -18.2693 -18.2682 -18.2679
   -18.2635 -18.2623 -18.2604 -18.2603 -18.2595 -18.2582 -18.2568 -18.2563
   -18.2508 -18.2478 -18.2478 -18.2432 -18.2304 -18.2058 -18.1983 -18.1961
   -18.1949 -18.1927 -18.1903 -18.1828 -18.1810 -18.1756 -18.1722 -18.1495
    -9.4661  -9.3756  -9.2773  -9.2215  -9.1733  -9.1505  -9.0683  -9.0201
    -8.9950  -8.9843  -8.9473  -8.9328  -8.9050  -8.8917  -8.8650  -8.8181
    -8.7813  -8.7600  -8.7273  -8.6970  -8.6711  -8.6536  -8.5578  -8.4989
    -5.3235  -5.3133  -5.3080  -5.1850  -5.1669  -5.1591  -5.1580  -5.1412
    -5.1373  -5.0959  -5.0942  -5.0838  -5.0726  -5.0535  -5.0487  -5.0473
    -5.0389  -5.0336  -5.0311  -5.0211  -5.0087  -4.9632  -4.9512  -4.9358
    -4.3521  -4.1246  -3.8343  -3.7906  -3.6006  -3.5501  -3.2230  -2.9700
    -0.7464  -0.6837  -0.6173  -0.5825  -0.5539  -0.4923  -0.4512  -0.3679
    -0.1275  -0.0766  -0.0296   0.0368   0.3811   0.4435   0.4931   0.5418
     0.5760   0.5981   0.6242   0.6588   0.6831   0.7073   0.7787   0.8102
     0.8835   0.9325   0.9584   1.0285   1.0935   1.1098   1.1264   1.1810
     1.2264   1.2531   1.2755   1.3127   1.3246   1.3415   1.3704   1.4045
     1.4313   1.4467   1.4623   1.4805   1.4976   1.5140   1.5374   1.5629
     1.5853   1.6111   1.6321   1.6556   1.6758   1.6941   1.7184   1.7460
     1.7582   1.7810   1.8052   1.8429   1.8939   1.9342   1.9864   1.9975
     2.0179   2.0956   2.2049   2.2481   2.3861   2.4404   2.6752   2.8496

          k = 0.1250 0.3750-0.1250 (132608 PWs)   bands (ev):

   -18.5597 -18.4605 -18.4546 -18.4519 -18.4490 -18.4411 -18.3884 -18.3602
   -18.3118 -18.3026 -18.2988 -18.2914 -18.2828 -18.2815 -18.2796 -18.2777
   -18.2727 -18.2716 -18.2713 -18.2709 -18.2703 -18.2693 -18.2682 -18.2679
   -18.2635 -18.2623 -18.2604 -18.2603 -18.2595 -18.2582 -18.2568 -18.2563
   -18.2508 -18.2478 -18.2478 -18.2432 -18.2304 -18.2058 -18.1983 -18.1961
   -18.1949 -18.1927 -18.1903 -18.1828 -18.1810 -18.1756 -18.1722 -18.1495
    -9.4654  -9.3773  -9.2784  -9.2167  -9.1831  -9.1364  -9.0725  -9.0213
    -9.0128  -8.9705  -8.9451  -8.9312  -8.9079  -8.8903  -8.8642  -8.8167
    -8.7826  -8.7609  -8.7262  -8.6995  -8.6694  -8.6536  -8.5580  -8.4989
    -5.3235  -5.3133  -5.3080  -5.1846  -5.1671  -5.1594  -5.1581  -5.1410
    -5.1372  -5.0960  -5.0942  -5.0839  -5.0723  -5.0534  -5.0490  -5.0472
    -5.0389  -5.0339  -5.0310  -5.0210  -5.0087  -4.9630  -4.9512  -4.9358
    -4.3487  -4.1324  -3.8302  -3.7845  -3.6078  -3.5536  -3.2149  -2.9727
    -0.7527  -0.6816  -0.6284  -0.5808  -0.5544  -0.4982  -0.4420  -0.3647
    -0.1192  -0.0746  -0.0288   0.0462   0.3753   0.4416   0.4899   0.5406
     0.5775   0.5987   0.6269   0.6470   0.6930   0.7076   0.7790   0.8034
     0.8894   0.9284   0.9613   1.0373   1.0878   1.1017   1.1495   1.1800
     1.2084   1.2406   1.2747   1.2981   1.3271   1.3429   1.3816   1.4087
     1.4360   1.4518   1.4584   1.4818   1.5156   1.5345   1.5497   1.5678
     1.5779   1.5969   1.6114   1.6519   1.6687   1.6795   1.7210   1.7412
     1.7659   1.7806   1.7884   1.8538   1.8882   1.9330   1.9861   2.0030
     2.0124   2.0898   2.1909   2.2788   2.3960   2.4326   2.6803   2.8607

          k = 0.1250-0.3750 0.1250 (132608 PWs)   bands (ev):

   -18.5597 -18.4605 -18.4546 -18.4519 -18.4490 -18.4411 -18.3884 -18.3602
   -18.3118 -18.3026 -18.2988 -18.2914 -18.2828 -18.2815 -18.2796 -18.2777
   -18.2727 -18.2716 -18.2713 -18.2709 -18.2703 -18.2693 -18.2682 -18.2679
   -18.2635 -18.2623 -18.2604 -18.2603 -18.2595 -18.2582 -18.2568 -18.2563
   -18.2508 -18.2478 -18.2478 -18.2432 -18.2304 -18.2058 -18.1983 -18.1961
   -18.1949 -18.1927 -18.1903 -18.1828 -18.1810 -18.1756 -18.1722 -18.1495
    -9.4660  -9.3755  -9.2783  -9.2226  -9.1712  -9.1473  -9.0712  -9.0217
    -9.0082  -8.9715  -8.9448  -8.9303  -8.9056  -8.8922  -8.8656  -8.8214
    -8.7744  -8.7658  -8.7279  -8.6978  -8.6686  -8.6542  -8.5577  -8.4990
    -5.3235  -5.3133  -5.3080  -5.1847  -5.1672  -5.1593  -5.1581  -5.1410
    -5.1373  -5.0959  -5.0942  -5.0837  -5.0728  -5.0533  -5.0491  -5.0472
    -5.0390  -5.0338  -5.0311  -5.0209  -5.0087  -4.9631  -4.9512  -4.9357
    -4.3486  -4.1319  -3.8345  -3.7818  -3.5991  -3.5617  -3.2121  -2.9759
    -0.7445  -0.6824  -0.6145  -0.5858  -0.5689  -0.4932  -0.4362  -0.3706
    -0.1211  -0.0741  -0.0295   0.0341   0.3716   0.4457   0.4876   0.5352
     0.5840   0.6013   0.6382   0.6604   0.6747   0.7116   0.7730   0.7987
     0.8759   0.9341   0.9651   1.0419   1.0840   1.1135   1.1249   1.1847
     1.2175   1.2455   1.2756   1.3054   1.3345   1.3611   1.3779   1.4014
     1.4327   1.4410   1.4665   1.4815   1.5017   1.5241   1.5425   1.5680
     1.5760   1.6104   1.6361   1.6562   1.6692   1.6868   1.7032   1.7351
     1.7464   1.7799   1.8053   1.8546   1.8857   1.9412   1.9782   1.9961
     2.0209   2.1062   2.1850   2.2854   2.3849   2.4279   2.6857   2.8446

          k =-0.1250-0.3750 0.3750 (132616 PWs)   bands (ev):

   -18.5597 -18.4605 -18.4546 -18.4519 -18.4490 -18.4411 -18.3884 -18.3602
   -18.3118 -18.3026 -18.2988 -18.2914 -18.2828 -18.2815 -18.2796 -18.2777
   -18.2727 -18.2716 -18.2713 -18.2709 -18.2703 -18.2693 -18.2682 -18.2679
   -18.2635 -18.2623 -18.2604 -18.2603 -18.2595 -18.2582 -18.2568 -18.2563
   -18.2508 -18.2478 -18.2478 -18.2432 -18.2304 -18.2058 -18.1983 -18.1961
   -18.1949 -18.1927 -18.1903 -18.1828 -18.1810 -18.1756 -18.1722 -18.1495
    -9.4470  -9.3955  -9.2662  -9.2102  -9.2027  -9.1406  -9.0826  -9.0399
    -9.0107  -8.9818  -8.9359  -8.9165  -8.9087  -8.8816  -8.8434  -8.8070
    -8.7892  -8.7630  -8.7319  -8.6968  -8.6716  -8.6533  -8.5630  -8.4999
    -5.3235  -5.3133  -5.3080  -5.1849  -5.1669  -5.1592  -5.1585  -5.1407
    -5.1371  -5.0957  -5.0943  -5.0842  -5.0723  -5.0535  -5.0494  -5.0474
    -5.0373  -5.0356  -5.0311  -5.0215  -5.0075  -4.9630  -4.9510  -4.9360
    -4.2233  -4.0934  -3.8739  -3.7414  -3.6974  -3.5561  -3.3144  -3.1782
    -0.7048  -0.5963  -0.5712  -0.4832  -0.3503  -0.2958  -0.1731  -0.1491
    -0.0921  -0.0004   0.0804   0.1598   0.2608   0.3922   0.4377   0.4546
     0.5134   0.5739   0.5889   0.6152   0.6288   0.6627   0.7047   0.7133
     0.8028   0.8758   0.9342   0.9805   1.0275   1.0460   1.0938   1.1197
     1.1610   1.1864   1.2237   1.2710   1.2852   1.3221   1.3409   1.3788
     1.3983   1.4258   1.4711   1.4965   1.5115   1.5602   1.5672   1.5956
     1.6318   1.6401   1.6541   1.6633   1.6985   1.7088   1.7215   1.7492
     1.7634   1.7814   1.8067   1.8347   1.8536   1.8833   1.9044   1.9517
     2.0061   2.0391   2.0864   2.1614   2.2832   2.3707   2.4665   2.6090

          k =-0.1250 0.3750-0.3750 (132616 PWs)   bands (ev):

   -18.5597 -18.4605 -18.4546 -18.4519 -18.4490 -18.4411 -18.3884 -18.3602
   -18.3118 -18.3026 -18.2988 -18.2914 -18.2828 -18.2815 -18.2796 -18.2777
   -18.2727 -18.2716 -18.2713 -18.2709 -18.2703 -18.2693 -18.2682 -18.2679
   -18.2635 -18.2623 -18.2604 -18.2603 -18.2595 -18.2582 -18.2568 -18.2563
   -18.2508 -18.2478 -18.2478 -18.2432 -18.2304 -18.2058 -18.1983 -18.1961
   -18.1949 -18.1927 -18.1903 -18.1828 -18.1810 -18.1756 -18.1722 -18.1495
    -9.4482  -9.3935  -9.2658  -9.2151  -9.1979  -9.1462  -9.0748  -9.0441
    -9.0138  -8.9738  -8.9389  -8.9151  -8.9083  -8.8835  -8.8419  -8.8164
    -8.7813  -8.7646  -8.7314  -8.6976  -8.6704  -8.6539  -8.5627  -8.4999
    -5.3235  -5.3133  -5.3080  -5.1849  -5.1671  -5.1590  -5.1586  -5.1407
    -5.1372  -5.0956  -5.0942  -5.0839  -5.0728  -5.0535  -5.0495  -5.0473
    -5.0376  -5.0353  -5.0311  -5.0215  -5.0075  -4.9630  -4.9510  -4.9359
    -4.2232  -4.0925  -3.8764  -3.7488  -3.6857  -3.5571  -3.3136  -3.1814
    -0.7021  -0.5959  -0.5620  -0.4782  -0.3579  -0.2975  -0.1887  -0.1392
    -0.0882  -0.0104   0.0775   0.1525   0.2766   0.3860   0.4263   0.4699
     0.5111   0.5574   0.5804   0.6220   0.6478   0.6612   0.6903   0.7243
     0.8033   0.8824   0.9369   0.9818   1.0071   1.0448   1.0822   1.1325
     1.1590   1.1790   1.2442   1.2823   1.3042   1.3184   1.3475   1.3708
     1.3910   1.4413   1.4500   1.4806   1.5174   1.5582   1.5880   1.5957
     1.6292   1.6495   1.6558   1.6679   1.6894   1.7006   1.7275   1.7434
     1.7653   1.7751   1.8048   1.8328   1.8518   1.8801   1.8976   1.9503
     2.0124   2.0484   2.0852   2.1668   2.2896   2.3840   2.4486   2.5923

          k = 0.1250-0.3750-0.3750 (132616 PWs)   bands (ev):

   -18.5597 -18.4605 -18.4546 -18.4519 -18.4490 -18.4411 -18.3884 -18.3602
   -18.3118 -18.3026 -18.2988 -18.2914 -18.2828 -18.2815 -18.2796 -18.2777
   -18.2727 -18.2716 -18.2713 -18.2709 -18.2703 -18.2693 -18.2682 -18.2679
   -18.2635 -18.2623 -18.2604 -18.2603 -18.2595 -18.2582 -18.2568 -18.2563
   -18.2508 -18.2478 -18.2478 -18.2432 -18.2304 -18.2058 -18.1983 -18.1961
   -18.1949 -18.1927 -18.1903 -18.1828 -18.1810 -18.1756 -18.1722 -18.1495
    -9.4473  -9.3951  -9.2656  -9.2159  -9.1919  -9.1517  -9.0804  -9.0326
    -9.0136  -8.9780  -8.9400  -8.9178  -8.9076  -8.8842  -8.8439  -8.8071
    -8.7858  -8.7642  -8.7329  -8.6940  -8.6728  -8.6537  -8.5629  -8.4999
    -5.3234  -5.3133  -5.3080  -5.1852  -5.1665  -5.1591  -5.1585  -5.1409
    -5.1371  -5.0957  -5.0941  -5.0839  -5.0729  -5.0535  -5.0492  -5.0474
    -5.0374  -5.0354  -5.0311  -5.0216  -5.0075  -4.9631  -4.9511  -4.9360
    -4.2354  -4.0618  -3.9045  -3.7444  -3.6916  -3.5294  -3.3439  -3.1676
    -0.7028  -0.5973  -0.5652  -0.4739  -0.3507  -0.2791  -0.2108  -0.1294
    -0.1047   0.0140   0.0543   0.1268   0.2907   0.3768   0.4614   0.4660
     0.5326   0.5414   0.5716   0.6043   0.6465   0.6695   0.6990   0.7309
     0.8066   0.8839   0.9326   0.9584   1.0340   1.0482   1.0886   1.1252
     1.1674   1.1894   1.2326   1.2612   1.2887   1.3093   1.3504   1.3730
     1.3988   1.4424   1.4717   1.4898   1.5043   1.5387   1.5726   1.5890
     1.6166   1.6449   1.6592   1.6726   1.6860   1.7097   1.7425   1.7593
     1.7687   1.7911   1.8030   1.8284   1.8467   1.8867   1.9061   1.9749
     1.9988   2.0135   2.0937   2.1577   2.3014   2.3738   2.4527   2.5930

          k = 0.3750 0.1250-0.3750 (132616 PWs)   bands (ev):

   -18.5597 -18.4605 -18.4546 -18.4519 -18.4490 -18.4411 -18.3884 -18.3602
   -18.3118 -18.3026 -18.2988 -18.2914 -18.2828 -18.2815 -18.2796 -18.2777
   -18.2727 -18.2716 -18.2713 -18.2709 -18.2703 -18.2693 -18.2682 -18.2679
   -18.2635 -18.2623 -18.2604 -18.2603 -18.2595 -18.2582 -18.2568 -18.2563
   -18.2508 -18.2478 -18.2478 -18.2432 -18.2304 -18.2058 -18.1982 -18.1961
   -18.1950 -18.1927 -18.1903 -18.1828 -18.1810 -18.1756 -18.1722 -18.1495
    -9.4455  -9.3945  -9.2506  -9.2362  -9.2076  -9.1474  -9.0684  -9.0253
    -8.9987  -8.9835  -8.9458  -8.9280  -8.9061  -8.8713  -8.8621  -8.8056
    -8.7806  -8.7608  -8.7386  -8.7004  -8.6693  -8.6491  -8.5616  -8.5021
    -5.3235  -5.3133  -5.3080  -5.1845  -5.1673  -5.1588  -5.1583  -5.1408
    -5.1375  -5.0957  -5.0943  -5.0838  -5.0722  -5.0535  -5.0494  -5.0466
    -5.0381  -5.0352  -5.0313  -5.0214  -5.0077  -4.9617  -4.9516  -4.9356
    -4.2057  -4.0371  -3.9532  -3.7801  -3.6667  -3.4756  -3.4053  -3.1874
    -0.6098  -0.5539  -0.5358  -0.4654  -0.3620  -0.3005  -0.2130  -0.1192
    -0.0430  -0.0223  -0.0117   0.1525   0.2879   0.3749   0.4385   0.4884
     0.5314   0.5634   0.5841   0.6060   0.6343   0.6486   0.6969   0.7242
     0.8258   0.8595   0.8754   0.9290   0.9848   0.9993   1.0899   1.1345
     1.1637   1.1951   1.2325   1.2779   1.2886   1.3228   1.3421   1.3997
     1.4158   1.4352   1.4627   1.4993   1.5313   1.5476   1.5642   1.5773
     1.6113   1.6229   1.6488   1.6613   1.6959   1.7166   1.7358   1.7501
     1.7628   1.7738   1.8181   1.8420   1.8619   1.9088   1.9356   1.9718
     2.0199   2.0599   2.1036   2.1357   2.1958   2.3771   2.4268   2.5453

          k =-0.3750-0.1250-0.3750 (132616 PWs)   bands (ev):

   -18.5597 -18.4605 -18.4546 -18.4519 -18.4490 -18.4411 -18.3884 -18.3602
   -18.3118 -18.3026 -18.2988 -18.2914 -18.2828 -18.2815 -18.2796 -18.2777
   -18.2727 -18.2716 -18.2713 -18.2709 -18.2703 -18.2693 -18.2682 -18.2679
   -18.2635 -18.2623 -18.2604 -18.2603 -18.2595 -18.2582 -18.2568 -18.2563
   -18.2508 -18.2478 -18.2478 -18.2432 -18.2304 -18.2058 -18.1982 -18.1961
   -18.1950 -18.1927 -18.1903 -18.1828 -18.1810 -18.1756 -18.1722 -18.1495
    -9.4475  -9.3905  -9.2560  -9.2382  -9.1998  -9.1529  -9.0567  -9.0333
    -9.0022  -8.9822  -8.9451  -8.9298  -8.8998  -8.8730  -8.8625  -8.8126
    -8.7749  -8.7624  -8.7360  -8.7017  -8.6694  -8.6491  -8.5615  -8.5021
    -5.3235  -5.3133  -5.3081  -5.1849  -5.1672  -5.1587  -5.1580  -5.1410
    -5.1375  -5.0957  -5.0943  -5.0838  -5.0724  -5.0536  -5.0491  -5.0467
    -5.0382  -5.0348  -5.0314  -5.0214  -5.0078  -4.9619  -4.9517  -4.9356
    -4.2099  -4.0294  -3.9571  -3.7685  -3.6774  -3.4719  -3.4120  -3.1853
    -0.5977  -0.5559  -0.5411  -0.4734  -0.3419  -0.2884  -0.1864  -0.1372
    -0.0779  -0.0368  -0.0116   0.1232   0.2982   0.4089   0.4367   0.4906
     0.5102   0.5620   0.5778   0.6111   0.6360   0.6569   0.6908   0.7382
     0.8029   0.8360   0.9336   0.9454   0.9827   0.9965   1.0917   1.1381
     1.1696   1.1875   1.2190   1.2590   1.2907   1.3314   1.3519   1.3761
     1.4163   1.4400   1.4712   1.4872   1.5111   1.5581   1.5613   1.5734
     1.6125   1.6383   1.6561   1.6730   1.6952   1.7186   1.7315   1.7438
     1.7624   1.7888   1.8238   1.8457   1.8786   1.8961   1.9315   1.9610
     2.0139   2.0630   2.0845   2.1438   2.2117   2.3830   2.4080   2.5378

          k = 0.3750-0.1250 0.3750 (132616 PWs)   bands (ev):

   -18.5597 -18.4605 -18.4546 -18.4519 -18.4490 -18.4411 -18.3884 -18.3602
   -18.3118 -18.3026 -18.2988 -18.2914 -18.2828 -18.2815 -18.2796 -18.2777
   -18.2727 -18.2716 -18.2713 -18.2709 -18.2703 -18.2693 -18.2682 -18.2679
   -18.2635 -18.2623 -18.2604 -18.2603 -18.2595 -18.2582 -18.2568 -18.2563
   -18.2508 -18.2478 -18.2478 -18.2432 -18.2304 -18.2058 -18.1982 -18.1961
   -18.1950 -18.1927 -18.1903 -18.1828 -18.1810 -18.1756 -18.1722 -18.1495
    -9.4473  -9.3908  -9.2523  -9.2452  -9.1961  -9.1501  -9.0646  -9.0335
    -9.0043  -8.9710  -8.9471  -8.9278  -8.9052  -8.8714  -8.8603  -8.8168
    -8.7732  -8.7625  -8.7359  -8.7028  -8.6681  -8.6494  -8.5614  -8.5021
    -5.3235  -5.3133  -5.3081  -5.1846  -5.1675  -5.1588  -5.1581  -5.1408
    -5.1376  -5.0956  -5.0942  -5.0837  -5.0726  -5.0534  -5.0494  -5.0466
    -5.0383  -5.0350  -5.0313  -5.0213  -5.0078  -4.9618  -4.9516  -4.9355
    -4.2061  -4.0302  -3.9613  -3.7794  -3.6676  -3.4692  -3.4064  -3.1914
    -0.6014  -0.5562  -0.5326  -0.4801  -0.3481  -0.2886  -0.1657  -0.1419
    -0.0856  -0.0424   0.0029   0.1199   0.2956   0.4076   0.4288   0.4830
     0.5135   0.5687   0.5941   0.6018   0.6373   0.6650   0.6863   0.7471
     0.8011   0.8348   0.9050   0.9473   0.9711   1.0050   1.0911   1.1262
     1.1723   1.1870   1.2356   1.2763   1.2851   1.3309   1.3489   1.3893
     1.4099   1.4415   1.4669   1.4989   1.5269   1.5466   1.5670   1.5960
     1.6075   1.6400   1.6519   1.6746   1.6946   1.7075   1.7150   1.7293
     1.7506   1.7837   1.8173   1.8343   1.8769   1.8967   1.9300   1.9891
     2.0376   2.0577   2.0933   2.1245   2.2069   2.3911   2.4156   2.5331

          k =-0.3750 0.1250 0.3750 (132616 PWs)   bands (ev):

   -18.5597 -18.4605 -18.4546 -18.4519 -18.4490 -18.4411 -18.3884 -18.3602
   -18.3118 -18.3026 -18.2988 -18.2914 -18.2828 -18.2815 -18.2796 -18.2777
   -18.2727 -18.2716 -18.2713 -18.2709 -18.2703 -18.2693 -18.2682 -18.2679
   -18.2635 -18.2623 -18.2604 -18.2603 -18.2595 -18.2582 -18.2568 -18.2563
   -18.2508 -18.2478 -18.2478 -18.2432 -18.2304 -18.2058 -18.1982 -18.1961
   -18.1950 -18.1927 -18.1903 -18.1828 -18.1810 -18.1756 -18.1722 -18.1495
    -9.4458  -9.3943  -9.2521  -9.2300  -9.2107  -9.1534  -9.0588  -9.0271
    -9.0054  -8.9767  -8.9482  -8.9289  -8.9051  -8.8744  -8.8627  -8.8037
    -8.7775  -8.7633  -8.7393  -8.6988  -8.6697  -8.6494  -8.5616  -8.5021
    -5.3235  -5.3133  -5.3080  -5.1848  -5.1670  -5.1588  -5.1582  -5.1411
    -5.1375  -5.0958  -5.0941  -5.0835  -5.0728  -5.0536  -5.0492  -5.0467
    -5.0380  -5.0351  -5.0313  -5.0214  -5.0077  -4.9618  -4.9516  -4.9356
    -4.2091  -4.0323  -3.9553  -3.7726  -3.6700  -3.4748  -3.4127  -3.1847
    -0.5974  -0.5465  -0.5382  -0.4647  -0.3663  -0.2973  -0.2237  -0.1373
    -0.0470  -0.0228   0.0048   0.1393   0.2945   0.3654   0.4372   0.4954
     0.5357   0.5595   0.5870   0.6122   0.6188   0.6502   0.7019   0.7306
     0.8343   0.8542   0.8817   0.9334   0.9691   0.9999   1.0911   1.1450
     1.1711   1.1990   1.2247   1.2686   1.3119   1.3219   1.3307   1.3638
     1.4106   1.4498   1.4770   1.4923   1.5088   1.5404   1.5581   1.5852
     1.6123   1.6383   1.6711   1.6794   1.6947   1.7117   1.7260   1.7467
     1.7613   1.7917   1.8138   1.8335   1.8662   1.9100   1.9370   1.9834
     2.0290   2.0652   2.0940   2.1210   2.2023   2.3638   2.4173   2.5415

          k = 0.3750-0.3750 0.1250 (132616 PWs)   bands (ev):

   -18.5597 -18.4605 -18.4546 -18.4519 -18.4490 -18.4411 -18.3884 -18.3602
   -18.3118 -18.3026 -18.2988 -18.2914 -18.2828 -18.2815 -18.2796 -18.2777
   -18.2727 -18.2715 -18.2713 -18.2709 -18.2703 -18.2693 -18.2682 -18.2679
   -18.2635 -18.2623 -18.2604 -18.2603 -18.2595 -18.2582 -18.2568 -18.2563
   -18.2508 -18.2478 -18.2478 -18.2432 -18.2304 -18.2058 -18.1982 -18.1961
   -18.1950 -18.1927 -18.1903 -18.1828 -18.1810 -18.1756 -18.1722 -18.1495
    -9.4548  -9.3766  -9.2778  -9.2310  -9.1887  -9.1430  -9.0792  -9.0193
    -8.9999  -8.9806  -8.9515  -8.9377  -8.8995  -8.8810  -8.8604  -8.8041
    -8.7759  -8.7557  -8.7298  -8.7033  -8.6719  -8.6559  -8.5578  -8.5037
    -5.3236  -5.3133  -5.3080  -5.1846  -5.1669  -5.1592  -5.1582  -5.1409
    -5.1373  -5.0959  -5.0943  -5.0838  -5.0725  -5.0531  -5.0493  -5.0472
    -5.0387  -5.0338  -5.0315  -5.0211  -5.0088  -4.9627  -4.9511  -4.9356
    -4.2198  -4.0327  -3.9813  -3.7818  -3.6479  -3.4660  -3.3774  -3.1697
    -0.6653  -0.6245  -0.5427  -0.5024  -0.3741  -0.3159  -0.2022  -0.1269
    -0.0606  -0.0168   0.0576   0.1131   0.3389   0.4134   0.4732   0.4975
     0.5135   0.5534   0.5790   0.6174   0.6228   0.6731   0.6834   0.7119
     0.8004   0.8879   0.9241   0.9401   0.9605   1.0267   1.0504   1.1132
     1.1428   1.1637   1.2571   1.2824   1.3110   1.3222   1.3615   1.3845
     1.4001   1.4454   1.4667   1.4988   1.5181   1.5277   1.5549   1.5781
     1.6138   1.6241   1.6572   1.6841   1.7122   1.7268   1.7370   1.7686
     1.7871   1.8124   1.8242   1.8544   1.8653   1.9128   1.9284   1.9721
     2.0124   2.0301   2.0755   2.1510   2.2590   2.3762   2.4396   2.5577

          k =-0.3750-0.3750-0.1250 (132616 PWs)   bands (ev):

   -18.5597 -18.4605 -18.4546 -18.4519 -18.4490 -18.4411 -18.3884 -18.3602
   -18.3118 -18.3026 -18.2988 -18.2914 -18.2828 -18.2815 -18.2796 -18.2777
   -18.2727 -18.2715 -18.2713 -18.2709 -18.2703 -18.2693 -18.2682 -18.2679
   -18.2635 -18.2623 -18.2604 -18.2603 -18.2595 -18.2582 -18.2568 -18.2563
   -18.2508 -18.2478 -18.2478 -18.2432 -18.2304 -18.2058 -18.1982 -18.1961
   -18.1950 -18.1927 -18.1903 -18.1828 -18.1810 -18.1756 -18.1722 -18.1495
    -9.4548  -9.3768  -9.2776  -9.2224  -9.2008  -9.1445  -9.0665  -9.0234
    -9.0021  -8.9816  -8.9534  -8.9387  -8.8988  -8.8798  -8.8614  -8.8002
    -8.7788  -8.7554  -8.7286  -8.7026  -8.6740  -8.6553  -8.5581  -8.5035
    -5.3235  -5.3133  -5.3080  -5.1849  -5.1666  -5.1590  -5.1582  -5.1411
    -5.1373  -5.0960  -5.0943  -5.0838  -5.0723  -5.0534  -5.0489  -5.0472
    -5.0386  -5.0335  -5.0315  -5.0213  -5.0088  -4.9628  -4.9511  -4.9356
    -4.2233  -4.0291  -3.9824  -3.7701  -3.6583  -3.4521  -3.4005  -3.1609
    -0.6677  -0.6264  -0.5307  -0.4988  -0.3727  -0.3111  -0.2394  -0.1166
    -0.0925  -0.0019   0.0783   0.1313   0.3447   0.4064   0.4537   0.4868
     0.5358   0.5514   0.5777   0.6006   0.6397   0.6599   0.6816   0.7231
     0.8155   0.8833   0.9225   0.9418   0.9548   1.0247   1.0523   1.1152
     1.1398   1.1977   1.2125   1.2819   1.3157   1.3354   1.3614   1.3631
     1.4119   1.4412   1.4636   1.4936   1.5000   1.5308   1.5455   1.5901
     1.6125   1.6395   1.6580   1.6825   1.7011   1.7411   1.7590   1.7678
     1.7923   1.8170   1.8326   1.8515   1.8667   1.9087   1.9311   1.9618
     2.0029   2.0170   2.0768   2.1716   2.2808   2.3519   2.4072   2.5748

          k = 0.3750 0.3750-0.1250 (132616 PWs)   bands (ev):

   -18.5597 -18.4605 -18.4546 -18.4519 -18.4490 -18.4411 -18.3884 -18.3602
   -18.3118 -18.3026 -18.2988 -18.2914 -18.2828 -18.2815 -18.2796 -18.2777
   -18.2727 -18.2715 -18.2713 -18.2709 -18.2703 -18.2693 -18.2682 -18.2679
   -18.2635 -18.2623 -18.2604 -18.2603 -18.2595 -18.2582 -18.2568 -18.2563
   -18.2508 -18.2478 -18.2478 -18.2432 -18.2304 -18.2058 -18.1982 -18.1961
   -18.1950 -18.1927 -18.1903 -18.1828 -18.1810 -18.1756 -18.1722 -18.1495
    -9.4538  -9.3790  -9.2771  -9.2253  -9.1979  -9.1356  -9.0796  -9.0231
    -8.9995  -8.9820  -8.9498  -8.9385  -8.9024  -8.8792  -8.8592  -8.7970
    -8.7821  -8.7562  -8.7278  -8.7037  -8.6731  -8.6553  -8.5583  -8.5035
    -5.3236  -5.3133  -5.3079  -5.1846  -5.1667  -5.1593  -5.1582  -5.1409
    -5.1372  -5.0959  -5.0943  -5.0840  -5.0720  -5.0533  -5.0492  -5.0472
    -5.0387  -5.0339  -5.0314  -5.0212  -5.0087  -4.9627  -4.9511  -4.9357
    -4.2201  -4.0323  -3.9823  -3.7789  -3.6528  -3.4512  -3.3950  -3.1637
    -0.6680  -0.6315  -0.5370  -0.5095  -0.3591  -0.3141  -0.2338  -0.1129
    -0.0931   0.0040   0.0888   0.1363   0.3379   0.4032   0.4419   0.4968
     0.5339   0.5488   0.5700   0.6060   0.6343   0.6763   0.7050   0.7184
     0.7863   0.9048   0.9144   0.9320   0.9376   1.0278   1.0635   1.1215
     1.1418   1.1880   1.2014   1.2790   1.3115   1.3295   1.3603   1.3920
     1.4081   1.4460   1.4696   1.4933   1.5190   1.5338   1.5567   1.5755
     1.6098   1.6339   1.6534   1.6701   1.6987   1.7161   1.7516   1.7761
     1.7941   1.8054   1.8408   1.8496   1.8647   1.9132   1.9382   1.9618
     1.9909   2.0296   2.0703   2.1681   2.2879   2.3621   2.4206   2.5767

          k =-0.3750 0.3750 0.1250 (132616 PWs)   bands (ev):

   -18.5597 -18.4605 -18.4546 -18.4519 -18.4490 -18.4411 -18.3884 -18.3602
   -18.3118 -18.3026 -18.2988 -18.2914 -18.2828 -18.2815 -18.2796 -18.2777
   -18.2727 -18.2715 -18.2713 -18.2709 -18.2703 -18.2693 -18.2682 -18.2679
   -18.2635 -18.2623 -18.2604 -18.2603 -18.2595 -18.2582 -18.2568 -18.2563
   -18.2508 -18.2478 -18.2478 -18.2432 -18.2304 -18.2058 -18.1982 -18.1961
   -18.1950 -18.1927 -18.1903 -18.1828 -18.1810 -18.1756 -18.1722 -18.1495
    -9.4541  -9.3783  -9.2783  -9.2227  -9.1968  -9.1429  -9.0763  -9.0157
    -9.0030  -8.9787  -8.9590  -8.9366  -8.9002  -8.8790  -8.8614  -8.7992
    -8.7753  -8.7590  -8.7310  -8.7007  -8.6732  -8.6558  -8.5582  -8.5036
    -5.3235  -5.3133  -5.3079  -5.1849  -5.1664  -5.1592  -5.1582  -5.1411
    -5.1372  -5.0960  -5.0942  -5.0837  -5.0726  -5.0533  -5.0490  -5.0472
    -5.0385  -5.0338  -5.0315  -5.0212  -5.0087  -4.9628  -4.9511  -4.9357
    -4.2230  -4.0308  -3.9802  -3.7720  -3.6562  -3.4679  -3.3817  -3.1649
    -0.6690  -0.6248  -0.5314  -0.4963  -0.3849  -0.3182  -0.2014  -0.1386
    -0.0558  -0.0191   0.0629   0.1142   0.3359   0.4084   0.4666   0.5096
     0.5169   0.5547   0.5910   0.6081   0.6281   0.6541   0.6952   0.7146
     0.8014   0.8951   0.9061   0.9465   0.9708   1.0322   1.0576   1.1073
     1.1434   1.1689   1.2286   1.2616   1.3154   1.3416   1.3601   1.3825
     1.4118   1.4439   1.4692   1.4904   1.5044   1.5210   1.5509   1.5801
     1.5977   1.6277   1.6756   1.6862   1.6989   1.7301   1.7534   1.7650
     1.7984   1.8172   1.8273   1.8566   1.8806   1.9088   1.9229   1.9704
     1.9952   2.0361   2.0779   2.1638   2.2447   2.3887   2.4202   2.5604

          k =-0.3750-0.3750 0.3750 (132612 PWs)   bands (ev):

   -18.5597 -18.4605 -18.4546 -18.4519 -18.4490 -18.4411 -18.3884 -18.3602
   -18.3118 -18.3026 -18.2988 -18.2914 -18.2828 -18.2815 -18.2796 -18.2777
   -18.2727 -18.2715 -18.2713 -18.2709 -18.2703 -18.2693 -18.2682 -18.2679
   -18.2635 -18.2623 -18.2604 -18.2603 -18.2595 -18.2582 -18.2568 -18.2563
   -18.2508 -18.2478 -18.2478 -18.2432 -18.2304 -18.2058 -18.1982 -18.1961
   -18.1950 -18.1927 -18.1903 -18.1828 -18.1810 -18.1756 -18.1722 -18.1495
    -9.4397  -9.3887  -9.2616  -9.2297  -9.2086  -9.1481  -9.0886  -9.0420
    -9.0091  -8.9834  -8.9367  -8.9192  -8.8990  -8.8671  -8.8446  -8.8036
    -8.7794  -8.7609  -8.7312  -8.6993  -8.6765  -8.6559  -8.5619  -8.5042
    -5.3235  -5.3133  -5.3080  -5.1849  -5.1668  -5.1590  -5.1584  -5.1407
    -5.1373  -5.0958  -5.0944  -5.0842  -5.0722  -5.0533  -5.0495  -5.0473
    -5.0373  -5.0353  -5.0313  -5.0216  -5.0073  -4.9625  -4.9510  -4.9357
    -4.0979  -3.9800  -3.8731  -3.7548  -3.7341  -3.6076  -3.4912  -3.3589
    -0.4491  -0.3810  -0.3430  -0.3098  -0.2330  -0.2016  -0.1715  -0.0712
    -0.0502   0.0515   0.0877   0.2272   0.2656   0.3347   0.3837   0.4161
     0.4712   0.4974   0.5353   0.5673   0.5892   0.6115   0.6393   0.6818
     0.7954   0.8623   0.8868   0.9518   0.9728   1.0162   1.0287   1.0737
     1.1114   1.1419   1.1576   1.2045   1.2153   1.2697   1.2928   1.3458
     1.3810   1.4121   1.4466   1.4872   1.5152   1.5424   1.5740   1.5991
     1.6399   1.6594   1.6791   1.6918   1.7187   1.7398   1.7639   1.7823
     1.8049   1.8168   1.8341   1.8447   1.8611   1.8869   1.9066   1.9448
     1.9674   1.9915   2.0237   2.0604   2.1095   2.1507   2.2406   2.3256

          k =-0.3750 0.3750-0.3750 (132612 PWs)   bands (ev):

   -18.5597 -18.4605 -18.4546 -18.4519 -18.4490 -18.4411 -18.3884 -18.3602
   -18.3118 -18.3026 -18.2988 -18.2914 -18.2828 -18.2815 -18.2796 -18.2777
   -18.2727 -18.2716 -18.2713 -18.2709 -18.2703 -18.2693 -18.2682 -18.2679
   -18.2635 -18.2623 -18.2604 -18.2603 -18.2595 -18.2582 -18.2568 -18.2563
   -18.2508 -18.2478 -18.2478 -18.2432 -18.2304 -18.2058 -18.1982 -18.1961
   -18.1950 -18.1927 -18.1903 -18.1828 -18.1810 -18.1756 -18.1722 -18.1495
    -9.4412  -9.3861  -9.2611  -9.2359  -9.2014  -9.1549  -9.0834  -9.0442
    -9.0107  -8.9779  -8.9386  -8.9186  -8.8978  -8.8687  -8.8432  -8.8123
    -8.7733  -8.7607  -8.7308  -8.7007  -8.6753  -8.6564  -8.5616  -8.5043
    -5.3235  -5.3133  -5.3081  -5.1849  -5.1670  -5.1589  -5.1584  -5.1407
    -5.1374  -5.0958  -5.0943  -5.0840  -5.0726  -5.0533  -5.0495  -5.0472
    -5.0375  -5.0350  -5.0314  -5.0216  -5.0074  -4.9626  -4.9509  -4.9357
    -4.0976  -3.9754  -3.8836  -3.7629  -3.7162  -3.6107  -3.4862  -3.3654
    -0.4324  -0.3781  -0.3368  -0.3138  -0.2614  -0.1909  -0.1457  -0.0920
    -0.0298   0.0266   0.0645   0.2110   0.2986   0.3130   0.3796   0.4502
     0.4719   0.4933   0.5105   0.5831   0.5959   0.6164   0.6309   0.6629
     0.8197   0.8629   0.8913   0.9405   0.9600   1.0168   1.0375   1.0833
     1.0956   1.1184   1.1786   1.2178   1.2380   1.2613   1.3038   1.3203
     1.3755   1.4242   1.4474   1.4948   1.5237   1.5478   1.5670   1.6007
     1.6294   1.6739   1.6878   1.7025   1.7194   1.7389   1.7595   1.7777
     1.7809   1.8065   1.8226   1.8410   1.8679   1.8769   1.9067   1.9317
     1.9802   2.0134   2.0436   2.0610   2.0971   2.1510   2.2473   2.3040

          k = 0.3750-0.3750-0.3750 (132612 PWs)   bands (ev):

   -18.5597 -18.4605 -18.4546 -18.4519 -18.4490 -18.4411 -18.3884 -18.3602
   -18.3118 -18.3026 -18.2988 -18.2914 -18.2828 -18.2815 -18.2796 -18.2777
   -18.2727 -18.2716 -18.2713 -18.2709 -18.2703 -18.2693 -18.2682 -18.2679
   -18.2635 -18.2623 -18.2604 -18.2603 -18.2595 -18.2582 -18.2568 -18.2563
   -18.2508 -18.2478 -18.2478 -18.2432 -18.2304 -18.2058 -18.1982 -18.1961
   -18.1950 -18.1927 -18.1903 -18.1828 -18.1810 -18.1756 -18.1722 -18.1495
    -9.4400  -9.3885  -9.2620  -9.2233  -9.2125  -9.1563  -9.0780  -9.0449
    -9.0118  -8.9800  -8.9372  -8.9206  -8.8987  -8.8687  -8.8466  -8.8018
    -8.7734  -8.7663  -8.7311  -8.6978  -8.6771  -8.6563  -8.5619  -8.5042
    -5.3235  -5.3133  -5.3080  -5.1851  -5.1665  -5.1589  -5.1584  -5.1409
    -5.1373  -5.0958  -5.0942  -5.0839  -5.0727  -5.0534  -5.0491  -5.0474
    -5.0373  -5.0351  -5.0313  -5.0217  -5.0073  -4.9626  -4.9510  -4.9358
    -4.1086  -3.9520  -3.8939  -3.7676  -3.7013  -3.6113  -3.5139  -3.3493
    -0.4315  -0.3846  -0.3310  -0.3024  -0.2385  -0.1992  -0.1696  -0.1119
    -0.0288   0.0180   0.0976   0.1922   0.2756   0.3317   0.3808   0.4502
     0.4896   0.5073   0.5224   0.5546   0.5866   0.6180   0.6310   0.6790
     0.8218   0.8504   0.8953   0.9381   0.9581   1.0311   1.0526   1.0772
     1.1123   1.1285   1.1604   1.1759   1.2372   1.2453   1.3173   1.3294
     1.3694   1.4261   1.4629   1.4852   1.5118   1.5484   1.5586   1.6033
     1.6368   1.6532   1.6893   1.7120   1.7177   1.7424   1.7602   1.7812
     1.7930   1.8133   1.8265   1.8509   1.8666   1.8918   1.8999   1.9302
     1.9701   1.9965   2.0566   2.0833   2.0991   2.1247   2.2364   2.3089

     highest occupied level (ev):     3.0970

!    total energy              =   -2256.28939588 Ry
     estimated scf accuracy    <          4.9E-11 Ry

     The total energy is the sum of the following terms:
     one-electron contribution =    -987.26545314 Ry
     hartree contribution      =     621.53113822 Ry
     xc contribution           =    -647.48763359 Ry
     ewald contribution        =   -1243.06744737 Ry

     convergence has been achieved in  15 iterations

     Forces acting on atoms (cartesian axes, Ry/au):

     atom    1 type  1   force =    -0.00019895    0.00091315    0.00237151
     atom    2 type  2   force =    -0.01510698   -0.00727412   -0.00773772
     atom    3 type  3   force =     0.01713321    0.00439822    0.00471732
     atom    4 type  3   force =    -0.00518396    0.00509904   -0.00717945
     atom    5 type  3   force =     0.00459378    0.00771855    0.00345611
     atom    6 type  1   force =    -0.00152025    0.00383295   -0.00146125
     atom    7 type  2   force =     0.01570871    0.01548481   -0.00057436
     atom    8 type  3   force =     0.01943645   -0.00413972   -0.00174944
     atom    9 type  3   force =    -0.00659294    0.00127682   -0.00192349
     atom   10 type  3   force =     0.02110205   -0.00607899    0.02464149
     atom   11 type  1   force =     0.01316553   -0.01081706   -0.00113461
     atom   12 type  2   force =    -0.01700573    0.00743472   -0.01336022
     atom   13 type  3   force =     0.02028124   -0.00571993    0.00104700
     atom   14 type  3   force =     0.00521620   -0.00640273    0.00875718
     atom   15 type  3   force =    -0.00355342   -0.00192572    0.00703271
     atom   16 type  1   force =     0.00381323   -0.00214922   -0.00070225
     atom   17 type  2   force =    -0.00755967   -0.01292726    0.00140300
     atom   18 type  3   force =     0.00832977   -0.00238207   -0.00200944
     atom   19 type  3   force =     0.00244425   -0.00064585   -0.01066298
     atom   20 type  3   force =     0.01271012    0.00527406    0.00297253
     atom   21 type  1   force =    -0.01994990    0.00398015   -0.01766673
     atom   22 type  2   force =     0.00750776   -0.01107275    0.00783387
     atom   23 type  3   force =    -0.00815386   -0.00218840   -0.00412609
     atom   24 type  3   force =    -0.00452624    0.00021247    0.01983008
     atom   25 type  3   force =    -0.00433661    0.00378063    0.00164536
     atom   26 type  1   force =     0.01085625    0.00471549    0.01243369
     atom   27 type  2   force =    -0.00564562    0.01226014   -0.00243028
     atom   28 type  3   force =    -0.03584285    0.00409953    0.00290259
     atom   29 type  3   force =     0.00363665   -0.00581773   -0.01442558
     atom   30 type  3   force =    -0.01203153   -0.00228257   -0.01121644
     atom   31 type  1   force =    -0.01108064    0.00644163   -0.00068527
     atom   32 type  2   force =     0.01383016    0.01452245    0.00105391
     atom   33 type  3   force =    -0.00966744    0.00002239    0.00820530
     atom   34 type  3   force =     0.00116458   -0.00275611    0.00114631
     atom   35 type  3   force =     0.00131943   -0.00001224   -0.00564063
     atom   36 type  1   force =    -0.00032702   -0.00484163   -0.00110980
     atom   37 type  2   force =     0.00726351   -0.00747241    0.00237100
     atom   38 type  3   force =    -0.01381951   -0.00935908   -0.00155415
     atom   39 type  3   force =    -0.00389449   -0.00196169   -0.00575534
     atom   40 type  3   force =    -0.00351526    0.00676007   -0.00071544

     Total force =     0.100830     Total SCF correction =     0.000036


     Computing stress (Cartesian axis) and pressure

          total   stress  (Ry/bohr**3)                   (kbar)     P=       -7.49
  -0.00003597  -0.00000636   0.00001185           -5.29       -0.94        1.74
  -0.00000636  -0.00006334  -0.00000023           -0.94       -9.32       -0.03
   0.00001185  -0.00000023  -0.00005336            1.74       -0.03       -7.85

 
     init_run     :     20.18s CPU     16.94s WALL (       1 calls)
     electrons    :    201.02s CPU    210.42s WALL (       1 calls)
     forces       :      8.79s CPU      3.88s WALL (       1 calls)
     stress       :     31.34s CPU     30.38s WALL (       1 calls)

     Called by init_run:
     wfcinit      :     12.18s CPU     13.86s WALL (       1 calls)
                                       13.86s GPU  (       1 calls)
     potinit      :      4.56s CPU      1.42s WALL (       1 calls)
     hinit0       :      2.87s CPU      0.99s WALL (       1 calls)

     Called by electrons:
     c_bands      :    120.36s CPU    168.62s WALL (      16 calls)
     sum_band     :     21.76s CPU     20.76s WALL (      16 calls)
                                       20.76s GPU  (      16 calls)
     v_of_rho     :     54.68s CPU     16.37s WALL (      16 calls)
     mix_rho      :      6.24s CPU      4.85s WALL (      16 calls)

     Called by c_bands:
     init_us_2    :      2.30s CPU      3.04s WALL (     280 calls)
                                        3.04s GPU  (     280 calls)
     cegterg      :     80.04s CPU    125.84s WALL (     128 calls)

     Called by *egterg:
     cdiaghg      :     13.42s CPU     24.74s WALL (     632 calls)
                                       24.71s GPU  (     632 calls)
     h_psi        :     54.98s CPU     73.39s WALL (     648 calls)
                                       72.96s GPU  (     648 calls)
     g_psi        :      0.00s CPU      0.36s WALL (     512 calls)
                                        0.35s GPU  (     512 calls)

     Called by h_psi:
     h_psi:calbec :      0.33s CPU      9.82s WALL (     648 calls)
                                        9.81s GPU  (     648 calls)
     vloc_psi     :     39.94s CPU     53.85s WALL (     648 calls)
                                       52.93s GPU  (     648 calls)
     add_vuspsi   :      0.34s CPU      9.66s WALL (     648 calls)
                                        9.65s GPU  (     648 calls)

     General routines
     calbec       :      0.33s CPU      0.39s WALL (     688 calls)
     fft          :     25.72s CPU      6.56s WALL (     185 calls)
                                        0.01s GPU  (       6 calls)
     ffts         :      2.59s CPU      0.67s WALL (      16 calls)
     fftw         :      0.65s CPU     62.42s WALL (   10426 calls)
                                       46.67s GPU  (   10426 calls)
 
     Parallel routines
 
     PWSCF        :   4m21.94s CPU   4m22.35s WALL

 
   This run was terminated on:  22: 8:42  22Apr2021            

=------------------------------------------------------------------------------=
   JOB DONE.
=------------------------------------------------------------------------------=
