
     Program PWSCF v.6.7MaX starts on 22Apr2021 at 21:24:29 

     This program is part of the open-source Quantum ESPRESSO suite
     for quantum simulation of materials; please cite
         "P. Giannozzi et al., J. Phys.:Condens. Matter 21 395502 (2009);
         "P. Giannozzi et al., J. Phys.:Condens. Matter 29 465901 (2017);
         "P. Giannozzi et al., J. Chem. Phys. 152 154105 (2020);
          URL http://www.quantum-espresso.org", 
     in publications or presentations arising from this work. More details at
     http://www.quantum-espresso.org/quote

     Parallel version (MPI & OpenMP), running on      16 processor cores
     Number of MPI processes:                 4
     Threads/MPI process:                     4

     MPI processes distributed on     1 nodes
     K-points division:     npool     =       4
     Reading input from ESP_14.pwi
Warning: card &CELL ignored
Warning: card / ignored

     Current dimensions of program PWSCF are:
     Max number of different atomic species (ntypx) = 10
     Max number of k-points (npk) =  40000
     Max angular momentum in pseudopotentials (lmaxx) =  3
     Message from routine read_pp_mesh:
     mesh size missing, using the one in header
     Message from routine read_pp_mesh:
     mesh size missing, using the one in header
     Message from routine read_pp_mesh:
     mesh size missing, using the one in header

     Subspace diagonalization in iterative solution of the eigenvalue problem:
     a serial algorithm will be used

 
     G-vector sticks info
     --------------------
     sticks:   dense  smooth     PW     G-vecs:    dense   smooth      PW
     Sum       12589   12589   3289              1061107  1061107  140905
 
     Using Slab Decomposition
 


     bravais-lattice index     =            0
     lattice parameter (alat)  =      23.7585  a.u.
     unit-cell volume          =   13410.8736 (a.u.)^3
     number of atoms/cell      =           40
     number of atomic types    =            3
     number of electrons       =       352.00
     number of Kohn-Sham states=          176
     kinetic-energy cutoff     =      70.0000  Ry
     charge density cutoff     =     280.0000  Ry
     scf convergence threshold =      1.0E-10
     mixing beta               =       0.7000
     number of iterations used =            8  plain     mixing
     Exchange-correlation= PBESOL
                           (   1   4  10   8   0   0   0)

     GPU acceleration is ACTIVE.


     celldm(1)=  23.758500  celldm(2)=   0.000000  celldm(3)=   0.000000
     celldm(4)=   0.000000  celldm(5)=   0.000000  celldm(6)=   0.000000

     crystal axes: (cart. coord. in units of alat)
               a(1) = (   1.000000   0.000000   0.000000 )  
               a(2) = (   0.000000   1.000000   0.000000 )  
               a(3) = (   0.000000   0.000000   1.000000 )  

     reciprocal axes: (cart. coord. in units 2 pi/alat)
               b(1) = (  1.000000  0.000000  0.000000 )  
               b(2) = (  0.000000  1.000000  0.000000 )  
               b(3) = (  0.000000  0.000000  1.000000 )  


     PseudoPot. # 1 for Cs read from file:
     /m100/home/userexternal/lmonacel/espresso/pseudo/Cs-nc-pbesol.upf
     MD5 check sum: 9d2f2206a14dc5b3b3f3fbfae186bed4
     Pseudo is Norm-conserving + core correction, Zval =  9.0
     Generated using ONCVPSP code by D. R. Hamann
     Using radial grid of 2384 points,  8 beta functions with: 
                l(1) =   0
                l(2) =   0
                l(3) =   1
                l(4) =   1
                l(5) =   2
                l(6) =   2
                l(7) =   3
                l(8) =   3

     PseudoPot. # 2 for Sn read from file:
     /m100/home/userexternal/lmonacel/espresso/pseudo/Sn-nc-pbesol.upf
     MD5 check sum: c2995d571af40102bfea7461443d92cf
     Pseudo is Norm-conserving + core correction, Zval = 14.0
     Generated using ONCVPSP code by D. R. Hamann
     Using radial grid of 1628 points,  6 beta functions with: 
                l(1) =   0
                l(2) =   0
                l(3) =   1
                l(4) =   1
                l(5) =   2
                l(6) =   2

     PseudoPot. # 3 for I  read from file:
     /m100/home/userexternal/lmonacel/espresso/pseudo/I-nc-pbesol.upf
     MD5 check sum: 80ed5ceb2eb9c553cfb6760a299d9c5b
     Pseudo is Norm-conserving + core correction, Zval =  7.0
     Generated using ONCVPSP code by D. R. Hamann
     Using radial grid of 1182 points,  6 beta functions with: 
                l(1) =   0
                l(2) =   0
                l(3) =   1
                l(4) =   1
                l(5) =   2
                l(6) =   2

     atomic species   valence    mass     pseudopotential
        Cs             9.00   132.90545     Cs( 1.00)
        Sn            14.00   118.71000     Sn( 1.00)
        I              7.00   126.90447     I ( 1.00)

     No symmetry found



   Cartesian axes

     site n.     atom                  positions (alat units)
         1           Cs  tau(   1) = (   0.2404204   0.2573726   0.2402018  )
         2           Sn  tau(   2) = (  -0.0154240  -0.0004364   0.0149601  )
         3           I   tau(   3) = (   0.2256649  -0.0073250  -0.0095681  )
         4           I   tau(   4) = (   0.0136642  -0.0067418   0.2675092  )
         5           I   tau(   5) = (  -0.0110460   0.2465690   0.0209436  )
         6           Cs  tau(   6) = (   0.2607578   0.2238430   0.7659131  )
         7           Sn  tau(   7) = (  -0.0189044   0.0080346   0.5036897  )
         8           I   tau(   8) = (   0.2409088   0.0153952   0.5133222  )
         9           I   tau(   9) = (  -0.0203235  -0.0389175   0.7677436  )
        10           I   tau(  10) = (   0.0096061   0.2418203   0.5141537  )
        11           Cs  tau(  11) = (   0.2742185   0.7616777   0.2331059  )
        12           Sn  tau(  12) = (   0.0190961   0.4962376  -0.0012936  )
        13           I   tau(  13) = (   0.2613682   0.4867440   0.0359181  )
        14           I   tau(  14) = (  -0.0244819   0.4895604   0.2624702  )
        15           I   tau(  15) = (   0.0109520   0.7398745   0.0398314  )
        16           Cs  tau(  16) = (   0.2597624   0.7727517   0.7414972  )
        17           Sn  tau(  17) = (   0.0207045   0.5132435   0.4944458  )
        18           I   tau(  18) = (   0.2660281   0.5202119   0.4769764  )
        19           I   tau(  19) = (   0.0138887   0.4914168   0.7681359  )
        20           I   tau(  20) = (  -0.0086401   0.7374170   0.4738495  )
        21           Cs  tau(  21) = (   0.7285107   0.2472054   0.2853358  )
        22           Sn  tau(  22) = (   0.4936476   0.0170950  -0.0128701  )
        23           I   tau(  23) = (   0.7361783   0.0073911   0.0143670  )
        24           I   tau(  24) = (   0.4326918  -0.0111521   0.2385809  )
        25           I   tau(  25) = (   0.4732729   0.2558153  -0.0151880  )
        26           Cs  tau(  26) = (   0.7950201   0.2709883   0.7426103  )
        27           Sn  tau(  27) = (   0.4732887   0.0080472   0.4854782  )
        28           I   tau(  28) = (   0.7328472   0.0271669   0.4710217  )
        29           I   tau(  29) = (   0.5269440   0.0234622   0.7411919  )
        30           I   tau(  30) = (   0.4687395   0.2545034   0.4853767  )
        31           Cs  tau(  31) = (   0.7178099   0.7377778   0.2180940  )
        32           Sn  tau(  32) = (   0.5202452   0.5126796  -0.0175655  )
        33           I   tau(  33) = (   0.7770864   0.4959907   0.0109628  )
        34           I   tau(  34) = (   0.5409180   0.4946546   0.2369264  )
        35           I   tau(  35) = (   0.5139920   0.7606416  -0.0060937  )
        36           Cs  tau(  36) = (   0.7336763   0.7014215   0.7568209  )
        37           Sn  tau(  37) = (   0.5212472   0.5197749   0.4831153  )
        38           I   tau(  38) = (   0.7689959   0.5261425   0.5156502  )
        39           I   tau(  39) = (   0.4862060   0.4625791   0.7374504  )
        40           I   tau(  40) = (   0.5408779   0.7451626   0.5024743  )

     number of k points=    32
                       cart. coord. in units 2pi/alat
        k(    1) = (   0.1250000   0.1250000   0.1250000), wk =   0.0625000
        k(    2) = (   0.1250000   0.1250000   0.3750000), wk =   0.0625000
        k(    3) = (   0.1250000   0.3750000   0.3750000), wk =   0.0625000
        k(    4) = (   0.3750000   0.3750000   0.3750000), wk =   0.0625000
        k(    5) = (  -0.1250000  -0.1250000   0.1250000), wk =   0.0625000
        k(    6) = (  -0.1250000   0.1250000  -0.1250000), wk =   0.0625000
        k(    7) = (   0.1250000  -0.1250000  -0.1250000), wk =   0.0625000
        k(    8) = (  -0.1250000  -0.1250000   0.3750000), wk =   0.0625000
        k(    9) = (  -0.1250000   0.1250000  -0.3750000), wk =   0.0625000
        k(   10) = (   0.1250000  -0.1250000  -0.3750000), wk =   0.0625000
        k(   11) = (   0.3750000  -0.1250000   0.1250000), wk =   0.0625000
        k(   12) = (  -0.3750000  -0.1250000  -0.1250000), wk =   0.0625000
        k(   13) = (   0.3750000   0.1250000  -0.1250000), wk =   0.0625000
        k(   14) = (  -0.3750000   0.1250000   0.1250000), wk =   0.0625000
        k(   15) = (  -0.1250000   0.3750000   0.1250000), wk =   0.0625000
        k(   16) = (  -0.1250000  -0.3750000  -0.1250000), wk =   0.0625000
        k(   17) = (   0.1250000   0.3750000  -0.1250000), wk =   0.0625000
        k(   18) = (   0.1250000  -0.3750000   0.1250000), wk =   0.0625000
        k(   19) = (  -0.1250000  -0.3750000   0.3750000), wk =   0.0625000
        k(   20) = (  -0.1250000   0.3750000  -0.3750000), wk =   0.0625000
        k(   21) = (   0.1250000  -0.3750000  -0.3750000), wk =   0.0625000
        k(   22) = (   0.3750000   0.1250000  -0.3750000), wk =   0.0625000
        k(   23) = (  -0.3750000  -0.1250000  -0.3750000), wk =   0.0625000
        k(   24) = (   0.3750000  -0.1250000   0.3750000), wk =   0.0625000
        k(   25) = (  -0.3750000   0.1250000   0.3750000), wk =   0.0625000
        k(   26) = (   0.3750000  -0.3750000   0.1250000), wk =   0.0625000
        k(   27) = (  -0.3750000  -0.3750000  -0.1250000), wk =   0.0625000
        k(   28) = (   0.3750000   0.3750000  -0.1250000), wk =   0.0625000
        k(   29) = (  -0.3750000   0.3750000   0.1250000), wk =   0.0625000
        k(   30) = (  -0.3750000  -0.3750000   0.3750000), wk =   0.0625000
        k(   31) = (  -0.3750000   0.3750000  -0.3750000), wk =   0.0625000
        k(   32) = (   0.3750000  -0.3750000  -0.3750000), wk =   0.0625000

     Dense  grid:  1061107 G-vectors     FFT dimensions: ( 128, 128, 128)

     Estimated max dynamical RAM per process >       6.82 GB

     Estimated total dynamical RAM >      27.27 GB

     Initial potential from superposition of free atoms

     starting charge  351.69472, renormalised to  352.00000
     Starting wfcs are  208 randomized atomic wfcs

     total cpu time spent up to now is       17.6 secs

     Self-consistent Calculation

     iteration #  1     ecut=    70.00 Ry     beta= 0.70
     Davidson diagonalization with overlap
     ethr =  1.00E-02,  avg # of iterations =  2.0

     Threshold (ethr) on eigenvalues was too large:
     Diagonalizing with lowered threshold

     Davidson diagonalization with overlap
     ethr =  2.19E-04,  avg # of iterations =  4.0

     total cpu time spent up to now is       38.4 secs

     total energy              =   -2256.01023357 Ry
     estimated scf accuracy    <       0.66690414 Ry

     iteration #  2     ecut=    70.00 Ry     beta= 0.70
     Davidson diagonalization with overlap
     ethr =  1.89E-04,  avg # of iterations =  3.3

     total cpu time spent up to now is       51.4 secs

     total energy              =   -2256.20884803 Ry
     estimated scf accuracy    <       0.33460277 Ry

     iteration #  3     ecut=    70.00 Ry     beta= 0.70
     Davidson diagonalization with overlap
     ethr =  9.51E-05,  avg # of iterations =  3.0

     total cpu time spent up to now is       63.1 secs

     total energy              =   -2256.27429353 Ry
     estimated scf accuracy    <       0.02779419 Ry

     iteration #  4     ecut=    70.00 Ry     beta= 0.70
     Davidson diagonalization with overlap
     ethr =  7.90E-06,  avg # of iterations =  4.2

     total cpu time spent up to now is       75.9 secs

     total energy              =   -2256.28325736 Ry
     estimated scf accuracy    <       0.00546203 Ry

     iteration #  5     ecut=    70.00 Ry     beta= 0.70
     Davidson diagonalization with overlap
     ethr =  1.55E-06,  avg # of iterations =  3.5

     total cpu time spent up to now is       88.1 secs

     total energy              =   -2256.28434034 Ry
     estimated scf accuracy    <       0.00145536 Ry

     iteration #  6     ecut=    70.00 Ry     beta= 0.70
     Davidson diagonalization with overlap
     ethr =  4.13E-07,  avg # of iterations =  3.2

     total cpu time spent up to now is      100.2 secs

     total energy              =   -2256.28462186 Ry
     estimated scf accuracy    <       0.00012361 Ry

     iteration #  7     ecut=    70.00 Ry     beta= 0.70
     Davidson diagonalization with overlap
     ethr =  3.51E-08,  avg # of iterations =  6.0

     total cpu time spent up to now is      115.2 secs

     total energy              =   -2256.28467773 Ry
     estimated scf accuracy    <       0.00002877 Ry

     iteration #  8     ecut=    70.00 Ry     beta= 0.70
     Davidson diagonalization with overlap
     ethr =  8.17E-09,  avg # of iterations =  3.7

     total cpu time spent up to now is      127.9 secs

     total energy              =   -2256.28468598 Ry
     estimated scf accuracy    <       0.00000507 Ry

     iteration #  9     ecut=    70.00 Ry     beta= 0.70
     Davidson diagonalization with overlap
     ethr =  1.44E-09,  avg # of iterations =  4.0

     total cpu time spent up to now is      141.4 secs

     total energy              =   -2256.28468777 Ry
     estimated scf accuracy    <       0.00000071 Ry

     iteration # 10     ecut=    70.00 Ry     beta= 0.70
     Davidson diagonalization with overlap
     ethr =  2.01E-10,  avg # of iterations =  3.4

     total cpu time spent up to now is      155.2 secs

     total energy              =   -2256.28468797 Ry
     estimated scf accuracy    <       0.00000027 Ry

     iteration # 11     ecut=    70.00 Ry     beta= 0.70
     Davidson diagonalization with overlap
     ethr =  7.54E-11,  avg # of iterations =  4.0

     total cpu time spent up to now is      168.5 secs

     total energy              =   -2256.28468804 Ry
     estimated scf accuracy    <       0.00000003 Ry

     iteration # 12     ecut=    70.00 Ry     beta= 0.70
     Davidson diagonalization with overlap
     ethr =  9.09E-12,  avg # of iterations =  5.7

     total cpu time spent up to now is      184.9 secs

     total energy              =   -2256.28468807 Ry
     estimated scf accuracy    <       0.00000002 Ry

     iteration # 13     ecut=    70.00 Ry     beta= 0.70
     Davidson diagonalization with overlap
     ethr =  5.42E-12,  avg # of iterations =  3.4

     total cpu time spent up to now is      197.6 secs

     total energy              =   -2256.28468807 Ry
     estimated scf accuracy    <          2.0E-09 Ry

     iteration # 14     ecut=    70.00 Ry     beta= 0.70
     Davidson diagonalization with overlap
     ethr =  5.80E-13,  avg # of iterations =  5.3

     total cpu time spent up to now is      213.9 secs

     total energy              =   -2256.28468807 Ry
     estimated scf accuracy    <          1.6E-10 Ry

     iteration # 15     ecut=    70.00 Ry     beta= 0.70
     Davidson diagonalization with overlap
     ethr =  1.00E-13,  avg # of iterations =  4.6

     total cpu time spent up to now is      228.8 secs

     End of self-consistent calculation

          k = 0.1250 0.1250 0.1250 (132670 PWs)   bands (ev):

   -18.7162 -18.4667 -18.4591 -18.4554 -18.4510 -18.4477 -18.4422 -18.4388
   -18.3317 -18.3133 -18.3070 -18.3019 -18.2942 -18.2904 -18.2873 -18.2846
   -18.2831 -18.2799 -18.2786 -18.2674 -18.2646 -18.2626 -18.2502 -18.2471
   -18.2387 -18.2361 -18.2312 -18.2299 -18.2080 -18.1963 -18.1895 -18.1877
   -18.1739 -18.1448 -18.1355 -18.1281 -18.1259 -18.1208 -18.0594 -18.0558
   -18.0516 -18.0422 -18.0395 -18.0383 -18.0340 -18.0308 -18.0238 -18.0139
    -9.4390  -9.3326  -9.2602  -9.2468  -9.1315  -9.0758  -9.0714  -9.0229
    -8.9938  -8.9432  -8.9359  -8.8988  -8.8759  -8.8466  -8.8196  -8.8062
    -8.7916  -8.7458  -8.6962  -8.6723  -8.6116  -8.5895  -8.5735  -8.4975
    -5.4723  -5.4643  -5.4478  -5.2563  -5.2453  -5.2376  -5.2171  -5.2126
    -5.2114  -5.1169  -5.1066  -5.0983  -5.0887  -5.0764  -5.0696  -5.0628
    -5.0522  -5.0500  -5.0426  -5.0283  -5.0171  -5.0070  -4.9988  -4.9951
    -4.4064  -3.9385  -3.8957  -3.8402  -3.4029  -3.3545  -3.2961  -2.7678
    -0.7680  -0.6918  -0.6413  -0.5994  -0.5599  -0.5236  -0.4419  -0.3983
    -0.3508  -0.3055  -0.2735  -0.1803   0.4056   0.4593   0.5373   0.6107
     0.6436   0.6675   0.7324   0.7586   0.7944   0.8593   0.8908   0.9381
     0.9789   1.0084   1.0450   1.0739   1.1046   1.1284   1.1634   1.1920
     1.2116   1.2425   1.2714   1.2908   1.3067   1.3328   1.3673   1.3857
     1.4087   1.4268   1.4598   1.4905   1.5117   1.5229   1.5461   1.5778
     1.5832   1.6223   1.6534   1.6697   1.6839   1.6997   1.7462   1.7650
     1.8005   1.8333   1.8741   1.9651   2.0178   2.0496   2.0912   2.1436
     2.1630   2.2052   2.2830   2.3412   2.5657   2.7277   2.7883   3.1695

          k = 0.1250 0.1250 0.3750 (132608 PWs)   bands (ev):

   -18.7162 -18.4667 -18.4591 -18.4554 -18.4510 -18.4477 -18.4422 -18.4388
   -18.3317 -18.3132 -18.3070 -18.3019 -18.2942 -18.2904 -18.2873 -18.2846
   -18.2831 -18.2799 -18.2786 -18.2674 -18.2646 -18.2626 -18.2502 -18.2471
   -18.2387 -18.2361 -18.2312 -18.2299 -18.2080 -18.1963 -18.1895 -18.1877
   -18.1739 -18.1448 -18.1355 -18.1281 -18.1259 -18.1208 -18.0594 -18.0558
   -18.0516 -18.0422 -18.0395 -18.0383 -18.0340 -18.0308 -18.0238 -18.0139
    -9.4283  -9.3423  -9.2618  -9.2274  -9.1451  -9.1115  -9.0718  -9.0184
    -8.9905  -8.9482  -8.9265  -8.8990  -8.8607  -8.8503  -8.8208  -8.8021
    -8.7779  -8.7451  -8.6979  -8.6714  -8.6115  -8.5968  -8.5660  -8.5072
    -5.4723  -5.4642  -5.4478  -5.2562  -5.2450  -5.2379  -5.2171  -5.2125
    -5.2114  -5.1167  -5.1062  -5.0979  -5.0888  -5.0761  -5.0697  -5.0630
    -5.0524  -5.0503  -5.0427  -5.0285  -5.0172  -5.0070  -4.9989  -4.9953
    -4.2875  -4.0852  -3.7852  -3.7285  -3.5557  -3.5138  -3.1840  -2.9576
    -0.7649  -0.6988  -0.6096  -0.5788  -0.5250  -0.4732  -0.3811  -0.3433
    -0.0808  -0.0324   0.0307   0.1442   0.3660   0.4205   0.5118   0.5278
     0.5734   0.5995   0.6308   0.6502   0.7049   0.7310   0.7605   0.8381
     0.8928   0.9089   0.9446   1.0114   1.0809   1.1004   1.1414   1.1646
     1.1875   1.2289   1.2635   1.2989   1.3308   1.3512   1.3624   1.4140
     1.4266   1.4518   1.4615   1.4741   1.5023   1.5263   1.5723   1.5941
     1.6166   1.6443   1.6600   1.6790   1.7019   1.7361   1.7410   1.7887
     1.8090   1.8486   1.8684   1.9074   1.9682   2.0066   2.0406   2.1046
     2.1413   2.1740   2.2313   2.3444   2.3629   2.5374   2.7092   2.9591

          k = 0.1250 0.3750 0.3750 (132616 PWs)   bands (ev):

   -18.7162 -18.4667 -18.4590 -18.4553 -18.4510 -18.4477 -18.4422 -18.4388
   -18.3317 -18.3132 -18.3070 -18.3019 -18.2942 -18.2904 -18.2873 -18.2846
   -18.2831 -18.2799 -18.2786 -18.2674 -18.2646 -18.2626 -18.2502 -18.2471
   -18.2387 -18.2361 -18.2313 -18.2299 -18.2080 -18.1963 -18.1895 -18.1877
   -18.1739 -18.1448 -18.1355 -18.1281 -18.1259 -18.1208 -18.0594 -18.0558
   -18.0516 -18.0422 -18.0395 -18.0383 -18.0340 -18.0308 -18.0238 -18.0139
    -9.4206  -9.3215  -9.2814  -9.2358  -9.1665  -9.1097  -9.0498  -9.0267
    -9.0106  -8.9405  -8.9274  -8.8975  -8.8632  -8.8433  -8.8183  -8.8085
    -8.7655  -8.7237  -8.6987  -8.6701  -8.6204  -8.5966  -8.5668  -8.5151
    -5.4722  -5.4642  -5.4478  -5.2566  -5.2446  -5.2382  -5.2171  -5.2126
    -5.2111  -5.1167  -5.1062  -5.0980  -5.0876  -5.0765  -5.0697  -5.0630
    -5.0526  -5.0499  -5.0422  -5.0285  -5.0173  -5.0065  -4.9988  -4.9963
    -4.1580  -3.9803  -3.9277  -3.7473  -3.5947  -3.4112  -3.3554  -3.1509
    -0.6399  -0.5959  -0.5594  -0.5264  -0.3490  -0.2577  -0.2388  -0.0950
    -0.0084   0.0353   0.0981   0.2401   0.2876   0.3699   0.4364   0.4703
     0.5487   0.5855   0.6095   0.6293   0.6404   0.6541   0.7005   0.7729
     0.8223   0.8788   0.9088   0.9482   0.9737   1.0111   1.0518   1.0702
     1.1427   1.1814   1.2291   1.2707   1.2927   1.3187   1.3315   1.3743
     1.4002   1.4325   1.4604   1.4715   1.5107   1.5267   1.6041   1.6298
     1.6481   1.6629   1.6978   1.7055   1.7300   1.7403   1.7789   1.8080
     1.8369   1.8628   1.8914   1.9160   1.9444   1.9757   2.0080   2.0459
     2.0755   2.1094   2.1534   2.2173   2.3426   2.4594   2.5248   2.6689

          k = 0.3750 0.3750 0.3750 (132612 PWs)   bands (ev):

   -18.7162 -18.4667 -18.4590 -18.4554 -18.4510 -18.4477 -18.4422 -18.4388
   -18.3317 -18.3132 -18.3070 -18.3019 -18.2942 -18.2904 -18.2873 -18.2846
   -18.2831 -18.2799 -18.2786 -18.2674 -18.2646 -18.2626 -18.2502 -18.2471
   -18.2387 -18.2361 -18.2313 -18.2299 -18.2080 -18.1963 -18.1895 -18.1877
   -18.1739 -18.1448 -18.1355 -18.1281 -18.1259 -18.1208 -18.0594 -18.0558
   -18.0516 -18.0422 -18.0395 -18.0383 -18.0340 -18.0308 -18.0238 -18.0139
    -9.4147  -9.3135  -9.2656  -9.2382  -9.1845  -9.1206  -9.0693  -9.0429
    -9.0286  -8.9440  -8.9196  -8.8852  -8.8604  -8.8185  -8.8020  -8.7802
    -8.7615  -8.7339  -8.7014  -8.6811  -8.6264  -8.6021  -8.5686  -8.5154
    -5.4723  -5.4642  -5.4478  -5.2566  -5.2446  -5.2383  -5.2171  -5.2127
    -5.2110  -5.1167  -5.1064  -5.0979  -5.0882  -5.0767  -5.0700  -5.0636
    -5.0528  -5.0499  -5.0403  -5.0289  -5.0161  -5.0064  -4.9990  -4.9960
    -4.0360  -3.8761  -3.8317  -3.7558  -3.6350  -3.5683  -3.5178  -3.3371
    -0.4589  -0.3681  -0.3096  -0.2746  -0.2321  -0.1383  -0.0991  -0.0501
     0.0096   0.0412   0.1215   0.2247   0.2847   0.3359   0.3899   0.4051
     0.4828   0.5047   0.5272   0.5868   0.6102   0.6308   0.6598   0.7242
     0.8304   0.8677   0.8861   0.9332   0.9829   1.0028   1.0173   1.0419
     1.0815   1.1064   1.1424   1.1590   1.2172   1.2506   1.2590   1.3183
     1.3437   1.3950   1.4456   1.4729   1.5344   1.5692   1.6050   1.6516
     1.6684   1.6980   1.7125   1.7303   1.7535   1.7732   1.8062   1.8130
     1.8499   1.8712   1.8899   1.9113   1.9306   1.9448   1.9747   2.0060
     2.0329   2.0594   2.1053   2.1282   2.2040   2.2628   2.3103   2.4139

          k =-0.1250-0.1250 0.1250 (132670 PWs)   bands (ev):

   -18.7162 -18.4667 -18.4591 -18.4554 -18.4510 -18.4477 -18.4422 -18.4388
   -18.3317 -18.3133 -18.3070 -18.3019 -18.2942 -18.2904 -18.2873 -18.2846
   -18.2831 -18.2799 -18.2786 -18.2674 -18.2646 -18.2626 -18.2502 -18.2471
   -18.2387 -18.2361 -18.2312 -18.2299 -18.2080 -18.1963 -18.1895 -18.1877
   -18.1739 -18.1448 -18.1355 -18.1281 -18.1259 -18.1208 -18.0594 -18.0558
   -18.0516 -18.0422 -18.0395 -18.0383 -18.0340 -18.0308 -18.0238 -18.0139
    -9.4390  -9.3330  -9.2607  -9.2456  -9.1269  -9.0926  -9.0667  -9.0057
    -8.9986  -8.9491  -8.9364  -8.8978  -8.8763  -8.8453  -8.8276  -8.8001
    -8.7883  -8.7463  -8.6990  -8.6720  -8.6120  -8.5890  -8.5723  -8.4979
    -5.4723  -5.4643  -5.4478  -5.2563  -5.2453  -5.2377  -5.2171  -5.2127
    -5.2114  -5.1169  -5.1068  -5.0980  -5.0885  -5.0764  -5.0694  -5.0628
    -5.0522  -5.0502  -5.0426  -5.0282  -5.0172  -5.0070  -4.9988  -4.9952
    -4.4075  -3.9344  -3.8956  -3.8423  -3.4030  -3.3611  -3.2884  -2.7713
    -0.7598  -0.6720  -0.6354  -0.6086  -0.5465  -0.4970  -0.4724  -0.4128
    -0.3664  -0.3168  -0.2764  -0.1842   0.4047   0.4664   0.5372   0.6057
     0.6388   0.6726   0.7303   0.7559   0.8067   0.8717   0.9174   0.9242
     0.9653   1.0114   1.0474   1.0732   1.1124   1.1365   1.1581   1.1856
     1.2040   1.2353   1.2671   1.2857   1.3064   1.3353   1.3602   1.3873
     1.4132   1.4377   1.4530   1.4684   1.5107   1.5282   1.5579   1.5738
     1.6081   1.6192   1.6453   1.6581   1.6907   1.7111   1.7368   1.7761
     1.8091   1.8356   1.8722   1.9675   2.0175   2.0537   2.0968   2.1278
     2.1592   2.2234   2.2671   2.3500   2.5777   2.6869   2.8024   3.1362

          k =-0.1250 0.1250-0.1250 (132670 PWs)   bands (ev):

   -18.7162 -18.4667 -18.4591 -18.4554 -18.4510 -18.4477 -18.4422 -18.4388
   -18.3317 -18.3133 -18.3070 -18.3019 -18.2942 -18.2904 -18.2873 -18.2846
   -18.2831 -18.2799 -18.2786 -18.2674 -18.2646 -18.2626 -18.2502 -18.2471
   -18.2387 -18.2361 -18.2312 -18.2299 -18.2080 -18.1963 -18.1895 -18.1877
   -18.1739 -18.1448 -18.1355 -18.1281 -18.1259 -18.1208 -18.0594 -18.0558
   -18.0516 -18.0422 -18.0395 -18.0383 -18.0340 -18.0308 -18.0238 -18.0139
    -9.4385  -9.3334  -9.2689  -9.2362  -9.1310  -9.0846  -9.0654  -9.0259
    -8.9865  -8.9445  -8.9394  -8.8968  -8.8752  -8.8470  -8.8243  -8.8044
    -8.7903  -8.7450  -8.6970  -8.6706  -8.6146  -8.5891  -8.5714  -8.4980
    -5.4723  -5.4643  -5.4478  -5.2563  -5.2453  -5.2376  -5.2171  -5.2126
    -5.2114  -5.1169  -5.1066  -5.0983  -5.0885  -5.0763  -5.0698  -5.0627
    -5.0523  -5.0505  -5.0420  -5.0283  -5.0172  -5.0069  -4.9987  -4.9952
    -4.4066  -3.9407  -3.8915  -3.8413  -3.4121  -3.3481  -3.2930  -2.7690
    -0.7757  -0.6944  -0.6427  -0.5907  -0.5221  -0.5054  -0.4603  -0.4193
    -0.3600  -0.3090  -0.2801  -0.1838   0.4091   0.4668   0.5356   0.6133
     0.6388   0.6729   0.7205   0.7483   0.8074   0.8610   0.8920   0.9420
     0.9714   1.0135   1.0402   1.0991   1.1113   1.1362   1.1665   1.2008
     1.2144   1.2360   1.2560   1.2822   1.3028   1.3196   1.3516   1.3761
     1.4147   1.4347   1.4628   1.4891   1.5143   1.5282   1.5646   1.5754
     1.5969   1.6128   1.6444   1.6495   1.6683   1.6981   1.7558   1.7643
     1.7998   1.8468   1.8731   1.9743   2.0188   2.0586   2.0964   2.1341
     2.1565   2.2092   2.2783   2.3353   2.6028   2.7331   2.7411   3.1790

          k = 0.1250-0.1250-0.1250 (132670 PWs)   bands (ev):

   -18.7162 -18.4667 -18.4591 -18.4554 -18.4510 -18.4477 -18.4422 -18.4388
   -18.3317 -18.3133 -18.3070 -18.3019 -18.2942 -18.2904 -18.2873 -18.2846
   -18.2831 -18.2799 -18.2786 -18.2674 -18.2646 -18.2626 -18.2502 -18.2471
   -18.2387 -18.2361 -18.2312 -18.2299 -18.2080 -18.1963 -18.1895 -18.1877
   -18.1739 -18.1448 -18.1355 -18.1281 -18.1259 -18.1208 -18.0594 -18.0558
   -18.0516 -18.0422 -18.0395 -18.0383 -18.0340 -18.0308 -18.0238 -18.0139
    -9.4384  -9.3325  -9.2748  -9.2289  -9.1364  -9.0855  -9.0604  -9.0163
    -8.9991  -8.9492  -8.9347  -8.8943  -8.8744  -8.8492  -8.8232  -8.8082
    -8.7855  -8.7455  -8.6981  -8.6702  -8.6134  -8.5892  -8.5731  -8.4975
    -5.4723  -5.4643  -5.4478  -5.2563  -5.2453  -5.2376  -5.2171  -5.2126
    -5.2114  -5.1169  -5.1067  -5.0981  -5.0885  -5.0764  -5.0696  -5.0627
    -5.0524  -5.0504  -5.0421  -5.0284  -5.0172  -5.0070  -4.9988  -4.9951
    -4.4069  -3.9367  -3.8945  -3.8425  -3.4078  -3.3469  -3.2993  -2.7674
    -0.7733  -0.6907  -0.6343  -0.5979  -0.5604  -0.5163  -0.4525  -0.3962
    -0.3516  -0.3080  -0.2732  -0.1808   0.4025   0.4714   0.5331   0.6176
     0.6291   0.6748   0.7117   0.7645   0.7941   0.8637   0.9018   0.9316
     0.9652   1.0226   1.0476   1.0832   1.1021   1.1329   1.1588   1.1843
     1.2201   1.2369   1.2575   1.2841   1.3108   1.3385   1.3579   1.3889
     1.4069   1.4265   1.4702   1.4841   1.5165   1.5457   1.5517   1.5705
     1.5929   1.6261   1.6376   1.6528   1.6776   1.7061   1.7449   1.7709
     1.8024   1.8340   1.8664   1.9725   2.0216   2.0576   2.0887   2.1344
     2.1593   2.2178   2.2908   2.3298   2.5878   2.7049   2.7839   3.1564

          k =-0.1250-0.1250 0.3750 (132608 PWs)   bands (ev):

   -18.7162 -18.4667 -18.4591 -18.4554 -18.4510 -18.4477 -18.4422 -18.4388
   -18.3317 -18.3132 -18.3070 -18.3019 -18.2942 -18.2904 -18.2873 -18.2846
   -18.2831 -18.2799 -18.2786 -18.2674 -18.2646 -18.2626 -18.2502 -18.2471
   -18.2387 -18.2361 -18.2312 -18.2299 -18.2080 -18.1963 -18.1895 -18.1877
   -18.1739 -18.1448 -18.1355 -18.1281 -18.1259 -18.1208 -18.0594 -18.0558
   -18.0516 -18.0422 -18.0395 -18.0383 -18.0340 -18.0308 -18.0238 -18.0139
    -9.4283  -9.3426  -9.2617  -9.2265  -9.1371  -9.1252  -9.0694  -9.0118
    -8.9906  -8.9487  -8.9326  -8.8969  -8.8618  -8.8473  -8.8259  -8.7995
    -8.7745  -8.7459  -8.7002  -8.6714  -8.6122  -8.5961  -8.5645  -8.5078
    -5.4723  -5.4642  -5.4478  -5.2562  -5.2451  -5.2380  -5.2171  -5.2126
    -5.2113  -5.1167  -5.1065  -5.0976  -5.0887  -5.0761  -5.0696  -5.0630
    -5.0524  -5.0505  -5.0427  -5.0284  -5.0173  -5.0070  -4.9989  -4.9953
    -4.2904  -4.0807  -3.7870  -3.7257  -3.5606  -3.5123  -3.1781  -2.9640
    -0.7590  -0.6922  -0.6085  -0.5780  -0.5177  -0.4595  -0.3835  -0.3489
    -0.0997  -0.0572   0.0148   0.1291   0.3774   0.4413   0.5201   0.5282
     0.5617   0.6034   0.6401   0.6699   0.6939   0.7371   0.7745   0.8322
     0.8779   0.9184   0.9542   1.0112   1.0559   1.1088   1.1458   1.1604
     1.1869   1.2226   1.2706   1.3040   1.3306   1.3379   1.3758   1.3860
     1.4316   1.4401   1.4649   1.4892   1.5049   1.5080   1.5742   1.6057
     1.6193   1.6459   1.6590   1.6865   1.7102   1.7295   1.7484   1.8068
     1.8158   1.8277   1.8676   1.9218   1.9463   2.0210   2.0486   2.0998
     2.1381   2.1659   2.2072   2.3485   2.4221   2.4915   2.7083   2.9385

          k =-0.1250 0.1250-0.3750 (132608 PWs)   bands (ev):

   -18.7162 -18.4667 -18.4591 -18.4554 -18.4510 -18.4477 -18.4422 -18.4388
   -18.3317 -18.3132 -18.3070 -18.3019 -18.2942 -18.2904 -18.2873 -18.2846
   -18.2831 -18.2799 -18.2786 -18.2674 -18.2646 -18.2626 -18.2502 -18.2471
   -18.2387 -18.2361 -18.2312 -18.2299 -18.2080 -18.1963 -18.1895 -18.1877
   -18.1739 -18.1448 -18.1355 -18.1281 -18.1259 -18.1208 -18.0594 -18.0558
   -18.0516 -18.0422 -18.0395 -18.0383 -18.0340 -18.0308 -18.0238 -18.0139
    -9.4279  -9.3425  -9.2614  -9.2328  -9.1291  -9.1149  -9.0796  -9.0228
    -8.9852  -8.9482  -8.9286  -8.8969  -8.8631  -8.8489  -8.8239  -8.7983
    -8.7779  -8.7452  -8.6984  -8.6708  -8.6144  -8.5956  -8.5642  -8.5079
    -5.4723  -5.4642  -5.4478  -5.2563  -5.2451  -5.2380  -5.2171  -5.2125
    -5.2113  -5.1167  -5.1062  -5.0977  -5.0887  -5.0759  -5.0700  -5.0629
    -5.0525  -5.0508  -5.0421  -5.0285  -5.0174  -5.0069  -4.9988  -4.9954
    -4.2882  -4.0839  -3.7850  -3.7271  -3.5648  -3.5093  -3.1780  -2.9616
    -0.7722  -0.7067  -0.5997  -0.5713  -0.5120  -0.4542  -0.3910  -0.3485
    -0.0876  -0.0572   0.0196   0.1313   0.3759   0.4476   0.5111   0.5436
     0.5664   0.5953   0.6254   0.6616   0.7084   0.7345   0.7527   0.8374
     0.8982   0.9140   0.9359   1.0112   1.0757   1.1105   1.1315   1.1732
     1.1851   1.2310   1.2725   1.2921   1.3200   1.3417   1.3770   1.4019
     1.4169   1.4454   1.4680   1.4979   1.5002   1.5317   1.5700   1.5902
     1.6091   1.6330   1.6609   1.6731   1.6963   1.7207   1.7520   1.7835
     1.8183   1.8564   1.8768   1.9051   1.9665   2.0133   2.0448   2.0970
     2.1496   2.1760   2.2255   2.3382   2.4056   2.4988   2.7038   2.9691

          k = 0.1250-0.1250-0.3750 (132608 PWs)   bands (ev):

   -18.7162 -18.4667 -18.4591 -18.4554 -18.4510 -18.4477 -18.4422 -18.4388
   -18.3317 -18.3132 -18.3070 -18.3019 -18.2942 -18.2904 -18.2873 -18.2846
   -18.2831 -18.2799 -18.2786 -18.2674 -18.2646 -18.2626 -18.2502 -18.2471
   -18.2387 -18.2361 -18.2312 -18.2299 -18.2080 -18.1963 -18.1895 -18.1877
   -18.1739 -18.1448 -18.1355 -18.1281 -18.1259 -18.1208 -18.0594 -18.0558
   -18.0516 -18.0422 -18.0395 -18.0383 -18.0340 -18.0308 -18.0238 -18.0139
    -9.4278  -9.3417  -9.2692  -9.2217  -9.1428  -9.1069  -9.0783  -9.0148
    -8.9935  -8.9503  -8.9290  -8.8941  -8.8630  -8.8489  -8.8217  -8.8048
    -8.7717  -8.7456  -8.7008  -8.6699  -8.6127  -8.5961  -8.5661  -8.5071
    -5.4723  -5.4642  -5.4478  -5.2562  -5.2450  -5.2380  -5.2171  -5.2125
    -5.2114  -5.1168  -5.1063  -5.0975  -5.0887  -5.0761  -5.0698  -5.0628
    -5.0526  -5.0507  -5.0422  -5.0285  -5.0173  -5.0070  -4.9989  -4.9953
    -4.2892  -4.0816  -3.7889  -3.7264  -3.5599  -3.5107  -3.1827  -2.9582
    -0.7694  -0.7066  -0.5967  -0.5688  -0.5301  -0.4700  -0.3794  -0.3452
    -0.0956  -0.0289   0.0264   0.1411   0.3709   0.4240   0.5171   0.5372
     0.5684   0.5925   0.6413   0.6512   0.6861   0.7354   0.7718   0.8278
     0.8833   0.9075   0.9489   1.0197   1.0686   1.0993   1.1394   1.1663
     1.1840   1.2560   1.2751   1.2907   1.3227   1.3380   1.3755   1.4043
     1.4201   1.4486   1.4589   1.4892   1.5107   1.5413   1.5561   1.6075
     1.6241   1.6356   1.6403   1.6636   1.7101   1.7305   1.7598   1.7912
     1.8087   1.8266   1.8629   1.9152   1.9729   2.0114   2.0491   2.1072
     2.1415   2.1765   2.2360   2.3376   2.3993   2.4768   2.7365   2.9428

          k = 0.3750-0.1250 0.1250 (132608 PWs)   bands (ev):

   -18.7162 -18.4667 -18.4591 -18.4554 -18.4510 -18.4477 -18.4422 -18.4388
   -18.3317 -18.3132 -18.3070 -18.3019 -18.2942 -18.2904 -18.2873 -18.2846
   -18.2831 -18.2799 -18.2786 -18.2674 -18.2646 -18.2626 -18.2502 -18.2471
   -18.2387 -18.2361 -18.2312 -18.2299 -18.2080 -18.1963 -18.1895 -18.1877
   -18.1739 -18.1448 -18.1355 -18.1281 -18.1259 -18.1208 -18.0594 -18.0558
   -18.0516 -18.0422 -18.0395 -18.0383 -18.0340 -18.0308 -18.0238 -18.0139
    -9.4277  -9.3239  -9.2877  -9.2220  -9.1467  -9.0965  -9.0667  -9.0422
    -8.9983  -8.9543  -8.9378  -8.8975  -8.8681  -8.8326  -8.8080  -8.7799
    -8.7628  -8.7512  -8.6992  -8.6794  -8.6253  -8.5966  -8.5754  -8.4983
    -5.4723  -5.4642  -5.4478  -5.2562  -5.2452  -5.2376  -5.2171  -5.2127
    -5.2113  -5.1168  -5.1064  -5.0981  -5.0889  -5.0768  -5.0700  -5.0633
    -5.0527  -5.0499  -5.0414  -5.0288  -5.0163  -5.0070  -4.9991  -4.9953
    -4.2810  -4.0410  -3.8051  -3.7544  -3.5509  -3.4839  -3.2582  -2.9831
    -0.7438  -0.6124  -0.5566  -0.5195  -0.4681  -0.4307  -0.3812  -0.2839
    -0.1034  -0.0561  -0.0209   0.0302   0.4144   0.4618   0.4948   0.5327
     0.5782   0.6074   0.6398   0.6719   0.6886   0.7110   0.7610   0.8090
     0.8461   0.9072   0.9360   1.0193   1.0618   1.0841   1.1162   1.1509
     1.1882   1.2118   1.2497   1.2762   1.3301   1.3361   1.3540   1.3713
     1.4200   1.4328   1.4631   1.4853   1.5052   1.5204   1.5613   1.5835
     1.6065   1.6415   1.6514   1.6700   1.6964   1.7165   1.7603   1.8095
     1.8354   1.8496   1.8822   1.9109   1.9676   1.9964   2.0228   2.0646
     2.0778   2.2254   2.2420   2.2867   2.4333   2.5142   2.6520   2.9508

          k =-0.3750-0.1250-0.1250 (132608 PWs)   bands (ev):

   -18.7162 -18.4667 -18.4591 -18.4554 -18.4510 -18.4477 -18.4422 -18.4388
   -18.3317 -18.3132 -18.3070 -18.3019 -18.2942 -18.2904 -18.2873 -18.2846
   -18.2831 -18.2799 -18.2786 -18.2674 -18.2646 -18.2626 -18.2502 -18.2471
   -18.2387 -18.2361 -18.2312 -18.2299 -18.2080 -18.1963 -18.1895 -18.1877
   -18.1739 -18.1448 -18.1355 -18.1281 -18.1259 -18.1208 -18.0594 -18.0558
   -18.0516 -18.0422 -18.0395 -18.0383 -18.0340 -18.0308 -18.0238 -18.0139
    -9.4283  -9.3231  -9.2818  -9.2328  -9.1416  -9.0947  -9.0652  -9.0442
    -9.0044  -8.9488  -8.9370  -8.8984  -8.8713  -8.8333  -8.8031  -8.7796
    -8.7627  -8.7521  -8.7000  -8.6821  -8.6220  -8.5957  -8.5779  -8.4980
    -5.4722  -5.4642  -5.4478  -5.2561  -5.2452  -5.2376  -5.2171  -5.2127
    -5.2113  -5.1168  -5.1064  -5.0980  -5.0891  -5.0769  -5.0698  -5.0634
    -5.0526  -5.0495  -5.0419  -5.0288  -5.0161  -5.0070  -4.9991  -4.9952
    -4.2811  -4.0398  -3.8071  -3.7553  -3.5385  -3.4963  -3.2562  -2.9830
    -0.7332  -0.6396  -0.5655  -0.5121  -0.4557  -0.4362  -0.3778  -0.2713
    -0.0950  -0.0495  -0.0362   0.0317   0.4150   0.4437   0.4911   0.5282
     0.5895   0.6219   0.6504   0.6658   0.6899   0.7206   0.7551   0.8065
     0.8470   0.9020   0.9438   1.0030   1.0469   1.0746   1.1180   1.1582
     1.1906   1.2191   1.2492   1.2745   1.2999   1.3422   1.3784   1.3940
     1.4073   1.4169   1.4593   1.4904   1.5113   1.5239   1.5514   1.5766
     1.6013   1.6462   1.6642   1.6854   1.7042   1.7463   1.7607   1.7921
     1.8280   1.8521   1.8773   1.8931   1.9454   1.9995   2.0226   2.0649
     2.0848   2.2183   2.2502   2.3029   2.4239   2.4961   2.6816   2.9444

          k = 0.3750 0.1250-0.1250 (132608 PWs)   bands (ev):

   -18.7162 -18.4667 -18.4591 -18.4553 -18.4510 -18.4477 -18.4422 -18.4388
   -18.3317 -18.3132 -18.3070 -18.3019 -18.2942 -18.2904 -18.2873 -18.2846
   -18.2831 -18.2799 -18.2786 -18.2674 -18.2646 -18.2626 -18.2502 -18.2471
   -18.2387 -18.2361 -18.2312 -18.2299 -18.2080 -18.1963 -18.1895 -18.1877
   -18.1739 -18.1448 -18.1355 -18.1281 -18.1259 -18.1208 -18.0594 -18.0558
   -18.0516 -18.0422 -18.0395 -18.0383 -18.0340 -18.0308 -18.0238 -18.0139
    -9.4284  -9.3229  -9.2847  -9.2271  -9.1429  -9.1023  -9.0700  -9.0267
    -9.0057  -8.9556  -8.9376  -8.8975  -8.8694  -8.8343  -8.8051  -8.7744
    -8.7643  -8.7528  -8.7022  -8.6812  -8.6220  -8.5966  -8.5761  -8.4983
    -5.4722  -5.4643  -5.4478  -5.2561  -5.2452  -5.2376  -5.2171  -5.2128
    -5.2113  -5.1168  -5.1066  -5.0978  -5.0889  -5.0769  -5.0697  -5.0634
    -5.0526  -5.0497  -5.0420  -5.0288  -5.0162  -5.0071  -4.9991  -4.9953
    -4.2836  -4.0358  -3.8033  -3.7610  -3.5436  -3.4884  -3.2566  -2.9864
    -0.7328  -0.5941  -0.5562  -0.5132  -0.4925  -0.4349  -0.3880  -0.2731
    -0.0972  -0.0683  -0.0451   0.0365   0.4067   0.4610   0.4938   0.5308
     0.5819   0.6088   0.6557   0.6688   0.6849   0.7108   0.7754   0.8221
     0.8405   0.9139   0.9507   1.0075   1.0591   1.0776   1.1040   1.1385
     1.1695   1.2129   1.2564   1.2936   1.3081   1.3345   1.3629   1.3909
     1.4210   1.4349   1.4567   1.4675   1.5018   1.5254   1.5725   1.5821
     1.6228   1.6397   1.6618   1.6748   1.6947   1.7450   1.7811   1.8020
     1.8262   1.8449   1.8645   1.9063   1.9369   2.0122   2.0262   2.0404
     2.0917   2.2302   2.2549   2.2952   2.4108   2.4982   2.6799   2.9218

          k =-0.3750 0.1250 0.1250 (132608 PWs)   bands (ev):

   -18.7162 -18.4667 -18.4591 -18.4554 -18.4510 -18.4477 -18.4422 -18.4388
   -18.3317 -18.3132 -18.3070 -18.3019 -18.2942 -18.2904 -18.2873 -18.2846
   -18.2831 -18.2799 -18.2786 -18.2674 -18.2646 -18.2626 -18.2502 -18.2471
   -18.2387 -18.2361 -18.2312 -18.2299 -18.2080 -18.1963 -18.1895 -18.1877
   -18.1739 -18.1448 -18.1355 -18.1281 -18.1259 -18.1208 -18.0594 -18.0558
   -18.0516 -18.0422 -18.0395 -18.0383 -18.0340 -18.0308 -18.0238 -18.0139
    -9.4276  -9.3226  -9.2904  -9.2196  -9.1499  -9.0946  -9.0671  -9.0322
    -9.0109  -8.9523  -8.9363  -8.8970  -8.8694  -8.8355  -8.8064  -8.7726
    -8.7667  -8.7505  -8.7026  -8.6787  -8.6242  -8.5954  -8.5775  -8.4980
    -5.4723  -5.4643  -5.4478  -5.2561  -5.2452  -5.2376  -5.2171  -5.2127
    -5.2114  -5.1169  -5.1066  -5.0978  -5.0889  -5.0769  -5.0698  -5.0633
    -5.0527  -5.0499  -5.0414  -5.0289  -5.0162  -5.0071  -4.9991  -4.9952
    -4.2825  -4.0369  -3.8079  -3.7565  -3.5411  -3.4928  -3.2575  -2.9822
    -0.7375  -0.6379  -0.5639  -0.5105  -0.4748  -0.4052  -0.3796  -0.2684
    -0.1047  -0.0783  -0.0230   0.0400   0.4085   0.4688   0.4977   0.5345
     0.5762   0.6028   0.6393   0.6681   0.6819   0.7045   0.7923   0.8065
     0.8385   0.8991   0.9553   0.9924   1.0479   1.0842   1.1140   1.1550
     1.1897   1.2199   1.2570   1.2851   1.3085   1.3392   1.3519   1.4022
     1.4050   1.4234   1.4473   1.4931   1.5147   1.5394   1.5504   1.5800
     1.6229   1.6302   1.6495   1.6704   1.7017   1.7392   1.7688   1.8060
     1.8145   1.8405   1.8804   1.9085   1.9667   2.0009   2.0250   2.0552
     2.0799   2.2241   2.2526   2.2931   2.4248   2.4999   2.6748   2.9356

          k =-0.1250 0.3750 0.1250 (132608 PWs)   bands (ev):

   -18.7162 -18.4667 -18.4590 -18.4553 -18.4510 -18.4477 -18.4422 -18.4388
   -18.3317 -18.3132 -18.3070 -18.3019 -18.2942 -18.2904 -18.2873 -18.2846
   -18.2831 -18.2799 -18.2786 -18.2674 -18.2646 -18.2626 -18.2502 -18.2471
   -18.2387 -18.2361 -18.2313 -18.2299 -18.2080 -18.1963 -18.1895 -18.1877
   -18.1739 -18.1448 -18.1355 -18.1281 -18.1259 -18.1208 -18.0594 -18.0558
   -18.0516 -18.0422 -18.0395 -18.0383 -18.0340 -18.0308 -18.0238 -18.0139
    -9.4270  -9.3210  -9.2953  -9.2244  -9.1663  -9.0801  -9.0443  -9.0274
    -9.0033  -8.9532  -8.9302  -8.8911  -8.8809  -8.8462  -8.8241  -8.8111
    -8.7695  -8.7243  -8.6987  -8.6679  -8.6221  -8.5930  -8.5685  -8.5083
    -5.4723  -5.4643  -5.4477  -5.2566  -5.2448  -5.2378  -5.2171  -5.2127
    -5.2111  -5.1168  -5.1066  -5.0982  -5.0873  -5.0769  -5.0695  -5.0627
    -5.0526  -5.0501  -5.0417  -5.0287  -5.0174  -5.0065  -4.9987  -4.9962
    -4.2758  -4.0694  -3.7991  -3.7222  -3.5852  -3.4995  -3.2129  -2.9742
    -0.6561  -0.6405  -0.5882  -0.5583  -0.5221  -0.4335  -0.4084  -0.2815
    -0.1483  -0.0583   0.0348   0.0804   0.3755   0.4151   0.4946   0.5403
     0.5649   0.5913   0.6199   0.6408   0.6749   0.7224   0.7393   0.8436
     0.8681   0.8956   0.9858   1.0194   1.0613   1.0952   1.1306   1.1596
     1.2171   1.2337   1.2498   1.2689   1.3173   1.3285   1.3566   1.3856
     1.4040   1.4395   1.4659   1.4827   1.5048   1.5355   1.5788   1.5965
     1.6275   1.6444   1.6641   1.6736   1.6958   1.7399   1.7603   1.7989
     1.8169   1.8653   1.8809   1.9076   1.9545   1.9879   2.0553   2.0676
     2.0925   2.1972   2.2593   2.3341   2.3697   2.5201   2.7518   2.9078

          k =-0.1250-0.3750-0.1250 (132608 PWs)   bands (ev):

   -18.7162 -18.4667 -18.4590 -18.4554 -18.4510 -18.4477 -18.4422 -18.4388
   -18.3317 -18.3132 -18.3070 -18.3019 -18.2942 -18.2904 -18.2873 -18.2846
   -18.2831 -18.2799 -18.2786 -18.2674 -18.2646 -18.2626 -18.2502 -18.2471
   -18.2387 -18.2361 -18.2313 -18.2299 -18.2080 -18.1963 -18.1895 -18.1877
   -18.1739 -18.1448 -18.1355 -18.1281 -18.1259 -18.1208 -18.0594 -18.0558
   -18.0516 -18.0422 -18.0395 -18.0383 -18.0340 -18.0308 -18.0238 -18.0139
    -9.4277  -9.3208  -9.2904  -9.2318  -9.1624  -9.0836  -9.0446  -9.0264
    -9.0033  -8.9439  -8.9333  -8.8972  -8.8820  -8.8426  -8.8207  -8.8142
    -8.7716  -8.7244  -8.6964  -8.6706  -8.6199  -8.5929  -8.5694  -8.5082
    -5.4722  -5.4643  -5.4478  -5.2566  -5.2448  -5.2378  -5.2171  -5.2127
    -5.2110  -5.1167  -5.1065  -5.0983  -5.0875  -5.0771  -5.0695  -5.0628
    -5.0523  -5.0497  -5.0422  -5.0286  -5.0173  -5.0065  -4.9988  -4.9962
    -4.2758  -4.0669  -3.8059  -3.7213  -3.5816  -3.4998  -3.2108  -2.9763
    -0.6756  -0.6246  -0.6056  -0.5439  -0.5006  -0.4375  -0.4023  -0.2992
    -0.1429  -0.0710   0.0350   0.0794   0.3744   0.4203   0.5052   0.5502
     0.5582   0.5816   0.6168   0.6436   0.6969   0.7142   0.7523   0.8283
     0.8581   0.8904   0.9988   1.0247   1.0556   1.0870   1.1325   1.1766
     1.1969   1.2371   1.2554   1.2878   1.3115   1.3308   1.3415   1.3769
     1.4083   1.4217   1.4555   1.4880   1.5089   1.5386   1.5792   1.6001
     1.6269   1.6498   1.6547   1.6941   1.7170   1.7427   1.7551   1.7779
     1.8059   1.8483   1.8851   1.9212   1.9639   1.9785   2.0389   2.0680
     2.1263   2.1918   2.2375   2.3457   2.3526   2.5149   2.7871   2.9081

          k = 0.1250 0.3750-0.1250 (132608 PWs)   bands (ev):

   -18.7162 -18.4667 -18.4590 -18.4553 -18.4510 -18.4477 -18.4422 -18.4388
   -18.3317 -18.3132 -18.3070 -18.3019 -18.2942 -18.2904 -18.2873 -18.2846
   -18.2831 -18.2799 -18.2786 -18.2674 -18.2646 -18.2626 -18.2502 -18.2471
   -18.2387 -18.2361 -18.2313 -18.2299 -18.2080 -18.1963 -18.1895 -18.1877
   -18.1739 -18.1448 -18.1355 -18.1281 -18.1259 -18.1208 -18.0594 -18.0558
   -18.0516 -18.0422 -18.0395 -18.0383 -18.0340 -18.0308 -18.0238 -18.0139
    -9.4277  -9.3226  -9.2859  -9.2365  -9.1578  -9.0903  -9.0442  -9.0152
    -9.0063  -8.9539  -8.9307  -8.8945  -8.8817  -8.8418  -8.8295  -8.8055
    -8.7698  -8.7256  -8.6992  -8.6705  -8.6203  -8.5924  -8.5676  -8.5089
    -5.4722  -5.4643  -5.4478  -5.2566  -5.2448  -5.2378  -5.2171  -5.2127
    -5.2110  -5.1167  -5.1067  -5.0981  -5.0874  -5.0769  -5.0693  -5.0628
    -5.0524  -5.0499  -5.0422  -5.0286  -5.0174  -5.0065  -4.9988  -4.9962
    -4.2776  -4.0666  -3.7995  -3.7218  -3.5822  -3.5053  -3.2053  -2.9813
    -0.6436  -0.6315  -0.6045  -0.5455  -0.5067  -0.4289  -0.4048  -0.2973
    -0.1565  -0.0918   0.0187   0.0631   0.3948   0.4402   0.4940   0.5399
     0.5672   0.5975   0.6104   0.6355   0.7158   0.7246   0.7541   0.8124
     0.8605   0.9065   0.9716   1.0141   1.0557   1.1045   1.1441   1.1643
     1.2131   1.2211   1.2521   1.2773   1.3091   1.3364   1.3548   1.3730
     1.4019   1.4439   1.4590   1.4783   1.5034   1.5256   1.5885   1.6007
     1.6236   1.6345   1.6642   1.6970   1.7182   1.7388   1.7642   1.7857
     1.8141   1.8582   1.8794   1.9099   1.9698   1.9916   2.0355   2.0608
     2.1205   2.1828   2.2474   2.3348   2.3819   2.4979   2.7745   2.8879

          k = 0.1250-0.3750 0.1250 (132608 PWs)   bands (ev):

   -18.7162 -18.4667 -18.4590 -18.4553 -18.4510 -18.4477 -18.4422 -18.4388
   -18.3317 -18.3132 -18.3070 -18.3019 -18.2942 -18.2904 -18.2873 -18.2846
   -18.2831 -18.2799 -18.2786 -18.2674 -18.2646 -18.2626 -18.2502 -18.2471
   -18.2387 -18.2361 -18.2313 -18.2299 -18.2080 -18.1963 -18.1895 -18.1877
   -18.1739 -18.1448 -18.1355 -18.1281 -18.1259 -18.1208 -18.0594 -18.0558
   -18.0516 -18.0422 -18.0395 -18.0383 -18.0340 -18.0308 -18.0238 -18.0139
    -9.4270  -9.3234  -9.2910  -9.2275  -9.1629  -9.0853  -9.0480  -9.0257
    -8.9971  -8.9467  -8.9350  -8.8938  -8.8825  -8.8438  -8.8233  -8.8142
    -8.7695  -8.7238  -8.6975  -8.6683  -8.6235  -8.5925  -8.5671  -8.5090
    -5.4723  -5.4643  -5.4478  -5.2567  -5.2448  -5.2378  -5.2171  -5.2127
    -5.2110  -5.1168  -5.1065  -5.0983  -5.0873  -5.0769  -5.0697  -5.0627
    -5.0525  -5.0501  -5.0416  -5.0287  -5.0175  -5.0064  -4.9987  -4.9963
    -4.2761  -4.0672  -3.8013  -3.7233  -3.5877  -3.4974  -3.2067  -2.9790
    -0.6681  -0.6418  -0.5858  -0.5622  -0.4970  -0.4175  -0.4097  -0.2779
    -0.1581  -0.0835   0.0177   0.0688   0.3978   0.4277   0.4857   0.5570
     0.5615   0.5937   0.6240   0.6430   0.6884   0.7313   0.7352   0.7921
     0.8728   0.9246   0.9822   1.0323   1.0517   1.0993   1.1296   1.1822
     1.2105   1.2351   1.2598   1.2799   1.2901   1.3221   1.3477   1.3692
     1.3906   1.4319   1.4611   1.4889   1.5138   1.5377   1.6010   1.6070
     1.6195   1.6455   1.6499   1.6744   1.6911   1.7305   1.7585   1.7886
     1.8232   1.8645   1.8920   1.9156   1.9665   1.9860   2.0315   2.0821
     2.1084   2.1840   2.2444   2.3203   2.3903   2.5116   2.7629   2.9221

          k =-0.1250-0.3750 0.3750 (132616 PWs)   bands (ev):

   -18.7162 -18.4667 -18.4590 -18.4554 -18.4510 -18.4477 -18.4422 -18.4388
   -18.3317 -18.3132 -18.3070 -18.3019 -18.2942 -18.2904 -18.2873 -18.2846
   -18.2831 -18.2799 -18.2786 -18.2674 -18.2646 -18.2626 -18.2502 -18.2471
   -18.2387 -18.2361 -18.2313 -18.2299 -18.2080 -18.1963 -18.1895 -18.1877
   -18.1739 -18.1448 -18.1355 -18.1281 -18.1259 -18.1208 -18.0594 -18.0558
   -18.0516 -18.0422 -18.0395 -18.0383 -18.0340 -18.0308 -18.0238 -18.0139
    -9.4206  -9.3235  -9.2735  -9.2449  -9.1589  -9.1174  -9.0430  -9.0272
    -9.0117  -8.9440  -8.9298  -8.8947  -8.8622  -8.8415  -8.8264  -8.8010
    -8.7643  -8.7255  -8.7004  -8.6704  -8.6210  -8.5963  -8.5645  -8.5160
    -5.4722  -5.4642  -5.4478  -5.2566  -5.2446  -5.2382  -5.2171  -5.2126
    -5.2111  -5.1167  -5.1064  -5.0978  -5.0874  -5.0764  -5.0696  -5.0630
    -5.0527  -5.0500  -5.0422  -5.0285  -5.0174  -5.0065  -4.9988  -4.9963
    -4.1628  -3.9774  -3.9228  -3.7448  -3.5983  -3.4325  -3.3263  -3.1617
    -0.6276  -0.5924  -0.5591  -0.5309  -0.3178  -0.2614  -0.2027  -0.1421
    -0.0304   0.0127   0.0655   0.1789   0.3225   0.3803   0.4605   0.5070
     0.5529   0.5768   0.6125   0.6421   0.6585   0.6909   0.7207   0.7626
     0.7841   0.8515   0.9017   0.9197   0.9679   1.0032   1.0860   1.1066
     1.1424   1.1776   1.2231   1.2495   1.2783   1.3368   1.3463   1.3646
     1.3971   1.4269   1.4440   1.4835   1.5064   1.5476   1.6032   1.6227
     1.6378   1.6704   1.6829   1.7135   1.7336   1.7635   1.7796   1.8087
     1.8386   1.8567   1.8885   1.9266   1.9450   1.9716   2.0157   2.0357
     2.0670   2.0932   2.1772   2.2250   2.3557   2.4661   2.4796   2.6616

          k =-0.1250 0.3750-0.3750 (132616 PWs)   bands (ev):

   -18.7162 -18.4667 -18.4590 -18.4554 -18.4510 -18.4477 -18.4422 -18.4388
   -18.3317 -18.3132 -18.3070 -18.3019 -18.2942 -18.2904 -18.2873 -18.2846
   -18.2831 -18.2799 -18.2786 -18.2674 -18.2646 -18.2626 -18.2502 -18.2471
   -18.2387 -18.2361 -18.2313 -18.2299 -18.2080 -18.1963 -18.1895 -18.1877
   -18.1739 -18.1448 -18.1355 -18.1281 -18.1259 -18.1208 -18.0594 -18.0558
   -18.0516 -18.0422 -18.0395 -18.0383 -18.0340 -18.0308 -18.0238 -18.0139
    -9.4201  -9.3230  -9.2777  -9.2442  -9.1567  -9.1074  -9.0601  -9.0288
    -9.0042  -8.9408  -8.9292  -8.8946  -8.8653  -8.8425  -8.8223  -8.8052
    -8.7643  -8.7233  -8.6996  -8.6694  -8.6235  -8.5957  -8.5645  -8.5160
    -5.4723  -5.4642  -5.4478  -5.2566  -5.2446  -5.2382  -5.2171  -5.2126
    -5.2111  -5.1168  -5.1062  -5.0978  -5.0875  -5.0764  -5.0700  -5.0628
    -5.0528  -5.0502  -5.0416  -5.0286  -5.0174  -5.0064  -4.9988  -4.9964
    -4.1598  -3.9801  -3.9206  -3.7538  -3.5952  -3.4305  -3.3249  -3.1607
    -0.6430  -0.6025  -0.5560  -0.5302  -0.3126  -0.2423  -0.1950  -0.1528
    -0.0353   0.0232   0.0665   0.1923   0.3225   0.3773   0.4621   0.5116
     0.5583   0.5806   0.5998   0.6354   0.6614   0.6787   0.7063   0.7516
     0.7855   0.8498   0.9051   0.9426   0.9745   0.9998   1.0843   1.1215
     1.1374   1.1736   1.2239   1.2476   1.2773   1.3168   1.3357   1.3813
     1.4040   1.4140   1.4661   1.4923   1.5020   1.5416   1.6086   1.6194
     1.6363   1.6706   1.6749   1.6987   1.7196   1.7469   1.7803   1.7886
     1.8360   1.8943   1.9079   1.9189   1.9435   1.9658   2.0274   2.0487
     2.0626   2.0908   2.1737   2.2269   2.3360   2.4675   2.4937   2.6825

          k = 0.1250-0.3750-0.3750 (132616 PWs)   bands (ev):

   -18.7162 -18.4667 -18.4590 -18.4554 -18.4510 -18.4477 -18.4422 -18.4388
   -18.3317 -18.3132 -18.3070 -18.3019 -18.2942 -18.2904 -18.2873 -18.2846
   -18.2831 -18.2799 -18.2786 -18.2674 -18.2646 -18.2626 -18.2502 -18.2471
   -18.2387 -18.2361 -18.2313 -18.2299 -18.2080 -18.1963 -18.1895 -18.1877
   -18.1739 -18.1448 -18.1355 -18.1281 -18.1259 -18.1208 -18.0594 -18.0558
   -18.0516 -18.0422 -18.0395 -18.0383 -18.0340 -18.0308 -18.0238 -18.0139
    -9.4201  -9.3205  -9.2848  -9.2383  -9.1612  -9.1023  -9.0590  -9.0257
    -9.0110  -8.9451  -8.9280  -8.8921  -8.8625  -8.8449  -8.8213  -8.8055
    -8.7627  -8.7239  -8.7016  -8.6687  -8.6216  -8.5963  -8.5664  -8.5151
    -5.4723  -5.4642  -5.4477  -5.2566  -5.2446  -5.2382  -5.2171  -5.2126
    -5.2111  -5.1168  -5.1063  -5.0977  -5.0874  -5.0764  -5.0698  -5.0628
    -5.0530  -5.0501  -5.0417  -5.0286  -5.0174  -5.0065  -4.9988  -4.9963
    -4.1593  -3.9817  -3.9251  -3.7423  -3.6006  -3.4105  -3.3567  -3.1493
    -0.6331  -0.6051  -0.5543  -0.5302  -0.3540  -0.2548  -0.2259  -0.1061
    -0.0103   0.0355   0.1027   0.2428   0.2844   0.3726   0.4358   0.4649
     0.5611   0.5751   0.6149   0.6291   0.6388   0.6554   0.6932   0.7719
     0.8254   0.8673   0.9173   0.9412   0.9660   0.9930   1.0517   1.0880
     1.1552   1.1852   1.2380   1.2612   1.2906   1.3182   1.3517   1.3845
     1.4030   1.4196   1.4388   1.4758   1.5158   1.5538   1.5989   1.6257
     1.6448   1.6550   1.6708   1.7019   1.7113   1.7689   1.7815   1.8094
     1.8339   1.8640   1.8928   1.9117   1.9507   1.9804   2.0154   2.0366
     2.0829   2.1181   2.1582   2.2305   2.3344   2.4430   2.5201   2.6619

          k = 0.3750 0.1250-0.3750 (132616 PWs)   bands (ev):

   -18.7162 -18.4667 -18.4591 -18.4554 -18.4510 -18.4477 -18.4422 -18.4388
   -18.3317 -18.3132 -18.3070 -18.3019 -18.2942 -18.2904 -18.2873 -18.2846
   -18.2831 -18.2799 -18.2786 -18.2674 -18.2646 -18.2626 -18.2502 -18.2471
   -18.2387 -18.2361 -18.2312 -18.2299 -18.2080 -18.1963 -18.1895 -18.1877
   -18.1739 -18.1448 -18.1355 -18.1281 -18.1259 -18.1208 -18.0594 -18.0558
   -18.0516 -18.0422 -18.0395 -18.0383 -18.0340 -18.0308 -18.0238 -18.0139
    -9.4198  -9.3303  -9.2715  -9.2273  -9.1491  -9.1225  -9.0739  -9.0308
    -9.0178  -8.9643  -8.9227  -8.8855  -8.8547  -8.8260  -8.8047  -8.7758
    -8.7667  -8.7528  -8.7029  -8.6789  -8.6226  -8.6036  -8.5656  -8.5081
    -5.4722  -5.4642  -5.4478  -5.2561  -5.2450  -5.2381  -5.2171  -5.2127
    -5.2113  -5.1168  -5.1067  -5.0978  -5.0887  -5.0763  -5.0694  -5.0635
    -5.0528  -5.0497  -5.0421  -5.0289  -5.0162  -5.0070  -4.9992  -4.9954
    -4.1709  -3.9683  -3.9012  -3.7206  -3.6149  -3.4565  -3.3477  -3.1628
    -0.7280  -0.6216  -0.5036  -0.4268  -0.2836  -0.2362  -0.1908  -0.1018
    -0.0300   0.0289   0.0610   0.1349   0.3316   0.4195   0.4761   0.4988
     0.5371   0.5576   0.5729   0.6094   0.6490   0.6863   0.7326   0.7614
     0.7922   0.8480   0.8872   0.9300   0.9965   1.0227   1.0873   1.1250
     1.1457   1.1798   1.2151   1.2466   1.2668   1.3002   1.3356   1.3670
     1.3886   1.4139   1.4365   1.4858   1.4980   1.5319   1.6043   1.6187
     1.6682   1.6745   1.6902   1.7099   1.7230   1.7622   1.7808   1.8103
     1.8359   1.8467   1.8678   1.9138   1.9399   1.9633   1.9839   2.0426
     2.0734   2.1201   2.1672   2.2127   2.2852   2.4173   2.4963   2.7016

          k =-0.3750-0.1250-0.3750 (132616 PWs)   bands (ev):

   -18.7162 -18.4667 -18.4591 -18.4553 -18.4510 -18.4477 -18.4422 -18.4388
   -18.3317 -18.3132 -18.3070 -18.3019 -18.2942 -18.2904 -18.2873 -18.2846
   -18.2831 -18.2799 -18.2786 -18.2674 -18.2646 -18.2626 -18.2502 -18.2471
   -18.2387 -18.2361 -18.2312 -18.2299 -18.2080 -18.1963 -18.1895 -18.1877
   -18.1739 -18.1448 -18.1355 -18.1281 -18.1259 -18.1208 -18.0594 -18.0558
   -18.0516 -18.0422 -18.0395 -18.0383 -18.0340 -18.0308 -18.0238 -18.0139
    -9.4198  -9.3305  -9.2658  -9.2374  -9.1455  -9.1159  -9.0735  -9.0451
    -9.0128  -8.9621  -8.9194  -8.8863  -8.8574  -8.8267  -8.7984  -8.7834
    -8.7649  -8.7523  -8.7010  -8.6795  -8.6226  -8.6032  -8.5671  -8.5076
    -5.4722  -5.4642  -5.4478  -5.2561  -5.2450  -5.2381  -5.2171  -5.2126
    -5.2113  -5.1168  -5.1065  -5.0981  -5.0889  -5.0763  -5.0696  -5.0635
    -5.0529  -5.0495  -5.0420  -5.0290  -5.0162  -5.0069  -4.9993  -4.9953
    -4.1638  -3.9895  -3.8917  -3.7014  -3.6318  -3.4567  -3.3501  -3.1568
    -0.7285  -0.6340  -0.5212  -0.4177  -0.3158  -0.2218  -0.1656  -0.0919
    -0.0426   0.0470   0.1002   0.1506   0.3287   0.4053   0.4393   0.5050
     0.5290   0.5572   0.5927   0.6079   0.6517   0.6780   0.7069   0.7408
     0.8237   0.8477   0.8726   0.9371   0.9853   1.0415   1.0840   1.1137
     1.1589   1.1892   1.2104   1.2317   1.2692   1.2940   1.3437   1.3693
     1.4054   1.4236   1.4428   1.4544   1.5009   1.5360   1.5864   1.6174
     1.6590   1.6786   1.7063   1.7247   1.7287   1.7560   1.7659   1.7956
     1.8224   1.8436   1.8688   1.9241   1.9379   1.9814   1.9889   2.0470
     2.0709   2.1260   2.1591   2.2171   2.2676   2.4327   2.4892   2.7215

          k = 0.3750-0.1250 0.3750 (132616 PWs)   bands (ev):

   -18.7162 -18.4667 -18.4591 -18.4553 -18.4510 -18.4477 -18.4422 -18.4388
   -18.3317 -18.3132 -18.3070 -18.3019 -18.2942 -18.2904 -18.2873 -18.2846
   -18.2831 -18.2799 -18.2786 -18.2674 -18.2646 -18.2626 -18.2502 -18.2471
   -18.2387 -18.2361 -18.2312 -18.2299 -18.2080 -18.1963 -18.1895 -18.1877
   -18.1739 -18.1448 -18.1355 -18.1281 -18.1259 -18.1208 -18.0594 -18.0558
   -18.0516 -18.0422 -18.0395 -18.0383 -18.0340 -18.0308 -18.0238 -18.0139
    -9.4193  -9.3304  -9.2708  -9.2350  -9.1369  -9.1159  -9.0818  -9.0455
    -9.0101  -8.9629  -8.9204  -8.8865  -8.8547  -8.8263  -8.8008  -8.7855
    -8.7623  -8.7523  -8.7008  -8.6781  -8.6254  -8.6030  -8.5653  -8.5082
    -5.4723  -5.4642  -5.4478  -5.2561  -5.2450  -5.2381  -5.2171  -5.2126
    -5.2113  -5.1168  -5.1065  -5.0980  -5.0887  -5.0761  -5.0698  -5.0634
    -5.0529  -5.0500  -5.0415  -5.0290  -5.0163  -5.0069  -4.9992  -4.9954
    -4.1645  -3.9883  -3.8909  -3.7025  -3.6345  -3.4563  -3.3451  -3.1599
    -0.7370  -0.6294  -0.4965  -0.4223  -0.3175  -0.2219  -0.1641  -0.1007
    -0.0486   0.0240   0.0996   0.1425   0.3362   0.4153   0.4667   0.4981
     0.5357   0.5546   0.5847   0.6084   0.6444   0.6842   0.7077   0.7396
     0.8131   0.8601   0.8719   0.9415   0.9814   1.0592   1.0758   1.1232
     1.1333   1.1747   1.1989   1.2655   1.2849   1.3149   1.3237   1.3744
     1.3874   1.4074   1.4353   1.4779   1.5062   1.5521   1.5914   1.6083
     1.6335   1.6693   1.6889   1.7058   1.7271   1.7423   1.7865   1.8040
     1.8336   1.8483   1.8743   1.9349   1.9468   1.9691   1.9928   2.0432
     2.0708   2.1406   2.1714   2.2134   2.2611   2.4094   2.4940   2.7255

          k =-0.3750 0.1250 0.3750 (132616 PWs)   bands (ev):

   -18.7162 -18.4667 -18.4591 -18.4554 -18.4510 -18.4477 -18.4422 -18.4388
   -18.3317 -18.3132 -18.3070 -18.3019 -18.2942 -18.2904 -18.2873 -18.2846
   -18.2831 -18.2799 -18.2786 -18.2674 -18.2646 -18.2626 -18.2502 -18.2471
   -18.2387 -18.2361 -18.2312 -18.2299 -18.2080 -18.1963 -18.1895 -18.1877
   -18.1739 -18.1448 -18.1355 -18.1281 -18.1259 -18.1208 -18.0594 -18.0558
   -18.0516 -18.0422 -18.0395 -18.0383 -18.0340 -18.0308 -18.0238 -18.0139
    -9.4192  -9.3295  -9.2752  -9.2300  -9.1431  -9.1120  -9.0820  -9.0346
    -9.0210  -8.9630  -8.9207  -8.8842  -8.8568  -8.8273  -8.8031  -8.7776
    -8.7646  -8.7510  -8.7046  -8.6775  -8.6240  -8.6025  -8.5671  -8.5076
    -5.4723  -5.4642  -5.4478  -5.2561  -5.2450  -5.2381  -5.2171  -5.2126
    -5.2113  -5.1169  -5.1067  -5.0977  -5.0887  -5.0763  -5.0696  -5.0633
    -5.0529  -5.0499  -5.0416  -5.0291  -5.0163  -5.0070  -4.9992  -4.9953
    -4.1690  -3.9703  -3.9016  -3.7208  -3.6167  -3.4552  -3.3513  -3.1570
    -0.7328  -0.6375  -0.5184  -0.4141  -0.2769  -0.2290  -0.1776  -0.1036
    -0.0334   0.0272   0.0739   0.1538   0.3420   0.4248   0.4703   0.5025
     0.5224   0.5480   0.5778   0.5978   0.6438   0.6688   0.7094   0.7643
     0.8337   0.8447   0.8717   0.9371   0.9773   1.0323   1.0751   1.1129
     1.1363   1.1908   1.2237   1.2489   1.2887   1.3145   1.3360   1.3681
     1.3881   1.4122   1.4436   1.4733   1.5058   1.5346   1.5841   1.6288
     1.6428   1.6737   1.6843   1.7107   1.7376   1.7638   1.7746   1.8088
     1.8232   1.8309   1.8659   1.9296   1.9359   1.9759   1.9944   2.0517
     2.0808   2.1195   2.1667   2.2297   2.2686   2.3817   2.5244   2.7092

          k = 0.3750-0.3750 0.1250 (132616 PWs)   bands (ev):

   -18.7162 -18.4667 -18.4590 -18.4554 -18.4510 -18.4477 -18.4422 -18.4388
   -18.3317 -18.3132 -18.3070 -18.3019 -18.2942 -18.2904 -18.2873 -18.2846
   -18.2831 -18.2799 -18.2786 -18.2674 -18.2646 -18.2626 -18.2502 -18.2471
   -18.2387 -18.2361 -18.2313 -18.2299 -18.2080 -18.1963 -18.1895 -18.1877
   -18.1739 -18.1448 -18.1355 -18.1281 -18.1259 -18.1208 -18.0594 -18.0558
   -18.0516 -18.0422 -18.0395 -18.0383 -18.0340 -18.0308 -18.0238 -18.0139
    -9.4195  -9.3126  -9.2844  -9.2300  -9.1884  -9.0878  -9.0638  -9.0342
    -9.0129  -8.9516  -8.9331  -8.8964  -8.8747  -8.8215  -8.8064  -8.7825
    -8.7573  -8.7321  -8.7000  -8.6819  -8.6286  -8.5984  -8.5711  -8.5091
    -5.4723  -5.4643  -5.4478  -5.2566  -5.2448  -5.2379  -5.2171  -5.2127
    -5.2109  -5.1167  -5.1062  -5.0980  -5.0880  -5.0773  -5.0704  -5.0636
    -5.0527  -5.0503  -5.0399  -5.0291  -5.0163  -5.0065  -4.9989  -4.9961
    -4.1518  -3.9572  -3.8927  -3.7126  -3.6539  -3.4572  -3.3788  -3.1763
    -0.5846  -0.5384  -0.5124  -0.3738  -0.3306  -0.2753  -0.1552  -0.0935
    -0.0403  -0.0038   0.0630   0.1285   0.3467   0.4078   0.4503   0.4785
     0.5192   0.5664   0.5721   0.6179   0.6284   0.6671   0.6807   0.7163
     0.8203   0.8800   0.9147   0.9484   0.9887   1.0346   1.0482   1.0617
     1.0797   1.1619   1.2031   1.2363   1.2559   1.2984   1.3325   1.3669
     1.3997   1.4406   1.4746   1.5028   1.5266   1.5449   1.5912   1.6040
     1.6255   1.6508   1.6815   1.6920   1.7115   1.7363   1.7970   1.8202
     1.8322   1.8723   1.8868   1.9231   1.9360   1.9746   1.9942   2.0161
     2.0565   2.1171   2.1721   2.2520   2.2992   2.4118   2.5010   2.6785

          k =-0.3750-0.3750-0.1250 (132616 PWs)   bands (ev):

   -18.7162 -18.4667 -18.4590 -18.4554 -18.4510 -18.4477 -18.4422 -18.4388
   -18.3317 -18.3132 -18.3070 -18.3019 -18.2942 -18.2904 -18.2873 -18.2846
   -18.2831 -18.2799 -18.2786 -18.2674 -18.2646 -18.2626 -18.2502 -18.2471
   -18.2387 -18.2361 -18.2313 -18.2299 -18.2080 -18.1963 -18.1895 -18.1877
   -18.1739 -18.1448 -18.1355 -18.1281 -18.1259 -18.1208 -18.0594 -18.0558
   -18.0516 -18.0422 -18.0395 -18.0383 -18.0340 -18.0308 -18.0238 -18.0139
    -9.4203  -9.3119  -9.2692  -9.2542  -9.1785  -9.0889  -9.0599  -9.0327
    -9.0213  -8.9472  -8.9318  -8.8987  -8.8760  -8.8228  -8.8029  -8.7801
    -8.7588  -8.7322  -8.7010  -8.6848  -8.6250  -8.5975  -8.5738  -8.5085
    -5.4723  -5.4643  -5.4478  -5.2566  -5.2448  -5.2379  -5.2170  -5.2127
    -5.2109  -5.1166  -5.1063  -5.0980  -5.0882  -5.0775  -5.0701  -5.0636
    -5.0526  -5.0500  -5.0403  -5.0291  -5.0162  -5.0066  -4.9990  -4.9960
    -4.1525  -3.9501  -3.8986  -3.7177  -3.6500  -3.4523  -3.3840  -3.1750
    -0.5972  -0.5400  -0.5014  -0.3763  -0.3243  -0.2757  -0.1638  -0.0980
    -0.0427   0.0339   0.0624   0.1077   0.3607   0.3987   0.4329   0.5098
     0.5338   0.5524   0.5651   0.6099   0.6266   0.6562   0.6944   0.7258
     0.8214   0.8724   0.9002   0.9546   0.9919   1.0300   1.0408   1.0515
     1.0744   1.1559   1.2025   1.2378   1.2815   1.3034   1.3425   1.3524
     1.4025   1.4369   1.4652   1.5048   1.5275   1.5432   1.5785   1.6090
     1.6411   1.6653   1.6821   1.6986   1.7210   1.7473   1.7701   1.8223
     1.8519   1.8647   1.8738   1.9069   1.9258   1.9559   2.0068   2.0156
     2.0721   2.1295   2.1571   2.2635   2.2989   2.3793   2.5456   2.6641

          k = 0.3750 0.3750-0.1250 (132616 PWs)   bands (ev):

   -18.7162 -18.4667 -18.4590 -18.4554 -18.4510 -18.4477 -18.4422 -18.4388
   -18.3317 -18.3132 -18.3070 -18.3019 -18.2942 -18.2904 -18.2873 -18.2846
   -18.2831 -18.2799 -18.2786 -18.2674 -18.2646 -18.2626 -18.2502 -18.2471
   -18.2387 -18.2361 -18.2313 -18.2299 -18.2080 -18.1963 -18.1895 -18.1877
   -18.1739 -18.1448 -18.1355 -18.1281 -18.1259 -18.1208 -18.0594 -18.0558
   -18.0516 -18.0422 -18.0395 -18.0383 -18.0340 -18.0308 -18.0238 -18.0139
    -9.4204  -9.3125  -9.2688  -9.2535  -9.1781  -9.0947  -9.0562  -9.0281
    -9.0211  -8.9548  -8.9311  -8.8959  -8.8758  -8.8218  -8.8051  -8.7760
    -8.7593  -8.7341  -8.7027  -8.6842  -8.6250  -8.5985  -8.5717  -8.5090
    -5.4722  -5.4643  -5.4478  -5.2566  -5.2448  -5.2379  -5.2170  -5.2128
    -5.2109  -5.1166  -5.1065  -5.0979  -5.0880  -5.0774  -5.0700  -5.0636
    -5.0527  -5.0501  -5.0404  -5.0290  -5.0162  -5.0066  -4.9989  -4.9961
    -4.1559  -3.9510  -3.8931  -3.7045  -3.6625  -3.4579  -3.3768  -3.1795
    -0.5729  -0.5294  -0.5090  -0.3667  -0.3229  -0.2907  -0.1690  -0.1037
    -0.0665   0.0329   0.0540   0.0885   0.3594   0.4180   0.4436   0.5103
     0.5330   0.5609   0.5746   0.5895   0.6194   0.6723   0.6980   0.7404
     0.8201   0.8617   0.9083   0.9526   0.9857   1.0140   1.0415   1.0564
     1.0783   1.1543   1.2049   1.2399   1.2816   1.3096   1.3380   1.3551
     1.4176   1.4366   1.4709   1.4884   1.5339   1.5583   1.5753   1.6121
     1.6236   1.6611   1.6735   1.6942   1.7278   1.7602   1.7849   1.8295
     1.8345   1.8668   1.8752   1.8944   1.9280   1.9607   2.0065   2.0103
     2.0716   2.1317   2.1721   2.2536   2.2977   2.3820   2.5302   2.6524

          k =-0.3750 0.3750 0.1250 (132616 PWs)   bands (ev):

   -18.7162 -18.4667 -18.4590 -18.4554 -18.4510 -18.4477 -18.4422 -18.4388
   -18.3317 -18.3132 -18.3070 -18.3019 -18.2942 -18.2904 -18.2873 -18.2846
   -18.2831 -18.2799 -18.2786 -18.2674 -18.2646 -18.2626 -18.2502 -18.2471
   -18.2387 -18.2361 -18.2313 -18.2299 -18.2080 -18.1963 -18.1895 -18.1877
   -18.1739 -18.1448 -18.1355 -18.1281 -18.1259 -18.1208 -18.0594 -18.0558
   -18.0516 -18.0422 -18.0395 -18.0383 -18.0340 -18.0308 -18.0238 -18.0139
    -9.4195  -9.3111  -9.2856  -9.2327  -9.1870  -9.0842  -9.0597  -9.0304
    -9.0261  -8.9525  -8.9298  -8.8964  -8.8748  -8.8245  -8.8045  -8.7762
    -8.7606  -8.7305  -8.7041  -8.6816  -8.6273  -8.5975  -8.5729  -8.5085
    -5.4723  -5.4643  -5.4477  -5.2566  -5.2448  -5.2379  -5.2170  -5.2127
    -5.2110  -5.1167  -5.1064  -5.0978  -5.0880  -5.0774  -5.0701  -5.0635
    -5.0528  -5.0502  -5.0400  -5.0292  -5.0163  -5.0066  -4.9989  -4.9960
    -4.1524  -3.9608  -3.8895  -3.6998  -3.6634  -3.4580  -3.3851  -3.1715
    -0.5847  -0.5356  -0.5170  -0.3911  -0.3337  -0.2665  -0.1539  -0.0783
    -0.0377   0.0049   0.0620   0.1423   0.3348   0.4053   0.4442   0.4906
     0.5139   0.5319   0.5760   0.6057   0.6368   0.6708   0.6827   0.7306
     0.8279   0.8775   0.9135   0.9427   0.9815   1.0099   1.0286   1.0755
     1.0959   1.1725   1.1961   1.2264   1.2756   1.3157   1.3401   1.3594
     1.4067   1.4316   1.4792   1.4894   1.5267   1.5522   1.5741   1.6034
     1.6440   1.6639   1.6761   1.6976   1.7150   1.7437   1.7771   1.8131
     1.8398   1.8689   1.8819   1.9128   1.9429   1.9699   2.0026   2.0269
     2.0471   2.1215   2.1714   2.2479   2.3008   2.4276   2.4904   2.6667

          k =-0.3750-0.3750 0.3750 (132612 PWs)   bands (ev):

   -18.7162 -18.4667 -18.4590 -18.4553 -18.4510 -18.4477 -18.4422 -18.4388
   -18.3317 -18.3132 -18.3070 -18.3019 -18.2942 -18.2904 -18.2873 -18.2846
   -18.2831 -18.2799 -18.2786 -18.2674 -18.2646 -18.2626 -18.2502 -18.2471
   -18.2387 -18.2361 -18.2313 -18.2299 -18.2080 -18.1963 -18.1895 -18.1877
   -18.1739 -18.1448 -18.1355 -18.1281 -18.1259 -18.1208 -18.0594 -18.0558
   -18.0516 -18.0422 -18.0395 -18.0383 -18.0340 -18.0308 -18.0238 -18.0139
    -9.4147  -9.3142  -9.2650  -9.2374  -9.1838  -9.1254  -9.0621  -9.0462
    -9.0273  -8.9464  -8.9216  -8.8838  -8.8587  -8.8161  -8.8062  -8.7758
    -8.7621  -8.7363  -8.7023  -8.6810  -8.6263  -8.6029  -8.5663  -8.5162
    -5.4723  -5.4643  -5.4478  -5.2566  -5.2446  -5.2384  -5.2171  -5.2127
    -5.2110  -5.1168  -5.1066  -5.0978  -5.0880  -5.0766  -5.0699  -5.0637
    -5.0529  -5.0501  -5.0404  -5.0289  -5.0162  -5.0065  -4.9989  -4.9961
    -4.0463  -3.8526  -3.8353  -3.7576  -3.6257  -3.6041  -3.4914  -3.3460
    -0.4390  -0.3508  -0.3033  -0.2367  -0.2115  -0.1820  -0.1274  -0.0820
     0.0011   0.0440   0.0710   0.1750   0.3130   0.3395   0.4111   0.4491
     0.4877   0.5113   0.5392   0.5882   0.6179   0.6290   0.6684   0.7158
     0.8120   0.8583   0.8975   0.9366   0.9630   0.9805   1.0273   1.0462
     1.0899   1.1317   1.1551   1.1770   1.1881   1.2361   1.2789   1.2970
     1.3535   1.3766   1.4578   1.4782   1.5375   1.5856   1.6087   1.6398
     1.6715   1.6929   1.7018   1.7292   1.7540   1.7817   1.8028   1.8388
     1.8442   1.8698   1.8851   1.8991   1.9220   1.9479   1.9723   1.9867
     2.0497   2.0845   2.1001   2.1498   2.1814   2.2522   2.3048   2.4041

          k =-0.3750 0.3750-0.3750 (132612 PWs)   bands (ev):

   -18.7162 -18.4667 -18.4590 -18.4553 -18.4510 -18.4477 -18.4422 -18.4388
   -18.3317 -18.3132 -18.3070 -18.3019 -18.2942 -18.2904 -18.2873 -18.2846
   -18.2831 -18.2799 -18.2786 -18.2674 -18.2646 -18.2626 -18.2502 -18.2471
   -18.2387 -18.2361 -18.2313 -18.2299 -18.2080 -18.1963 -18.1895 -18.1877
   -18.1739 -18.1448 -18.1355 -18.1281 -18.1259 -18.1208 -18.0594 -18.0558
   -18.0516 -18.0422 -18.0395 -18.0383 -18.0340 -18.0308 -18.0238 -18.0139
    -9.4141  -9.3134  -9.2715  -9.2350  -9.1818  -9.1126  -9.0810  -9.0456
    -9.0220  -8.9455  -8.9201  -8.8852  -8.8580  -8.8181  -8.8027  -8.7853
    -8.7572  -8.7342  -8.7008  -8.6800  -8.6293  -8.6022  -8.5664  -8.5162
    -5.4723  -5.4642  -5.4478  -5.2567  -5.2446  -5.2383  -5.2171  -5.2127
    -5.2110  -5.1168  -5.1063  -5.0979  -5.0880  -5.0766  -5.0703  -5.0635
    -5.0528  -5.0503  -5.0399  -5.0289  -5.0162  -5.0064  -4.9989  -4.9961
    -4.0379  -3.8765  -3.8200  -3.7582  -3.6534  -3.5808  -3.4842  -3.3472
    -0.4660  -0.3766  -0.2870  -0.2612  -0.1863  -0.1264  -0.1138  -0.0833
    -0.0392   0.0231   0.1078   0.2155   0.3187   0.3487   0.3858   0.4310
     0.4749   0.5111   0.5359   0.5920   0.6026   0.6388   0.6562   0.7052
     0.8120   0.8746   0.8931   0.9222   0.9760   1.0206   1.0255   1.0541
     1.0842   1.1084   1.1451   1.1844   1.1982   1.2458   1.2569   1.2900
     1.3518   1.3869   1.4488   1.4955   1.5339   1.5643   1.6088   1.6529
     1.6612   1.6802   1.7066   1.7186   1.7464   1.7718   1.7848   1.8313
     1.8560   1.8765   1.8905   1.9224   1.9371   1.9583   1.9755   2.0055
     2.0341   2.0611   2.1037   2.1626   2.1779   2.2401   2.3080   2.4214

          k = 0.3750-0.3750-0.3750 (132612 PWs)   bands (ev):

   -18.7162 -18.4667 -18.4590 -18.4553 -18.4510 -18.4477 -18.4422 -18.4388
   -18.3317 -18.3132 -18.3070 -18.3019 -18.2942 -18.2904 -18.2873 -18.2846
   -18.2831 -18.2799 -18.2786 -18.2674 -18.2646 -18.2626 -18.2502 -18.2471
   -18.2387 -18.2361 -18.2313 -18.2299 -18.2080 -18.1963 -18.1895 -18.1877
   -18.1739 -18.1448 -18.1355 -18.1281 -18.1259 -18.1208 -18.0594 -18.0558
   -18.0516 -18.0422 -18.0395 -18.0383 -18.0340 -18.0308 -18.0238 -18.0139
    -9.4141  -9.3122  -9.2719  -9.2387  -9.1796  -9.1116  -9.0756  -9.0469
    -9.0276  -8.9461  -8.9203  -8.8826  -8.8593  -8.8212  -8.8009  -8.7794
    -8.7597  -8.7327  -8.7048  -8.6798  -8.6278  -8.6017  -8.5682  -8.5154
    -5.4723  -5.4643  -5.4478  -5.2567  -5.2446  -5.2384  -5.2171  -5.2127
    -5.2110  -5.1168  -5.1065  -5.0977  -5.0880  -5.0767  -5.0701  -5.0635
    -5.0530  -5.0502  -5.0399  -5.0290  -5.0162  -5.0064  -4.9989  -4.9961
    -4.0397  -3.8812  -3.8112  -3.7597  -3.6482  -3.5536  -3.5315  -3.3331
    -0.4517  -0.3990  -0.3005  -0.2576  -0.2187  -0.1417  -0.0887  -0.0415
    -0.0194   0.0327   0.1051   0.2441   0.2926   0.3630   0.3925   0.4057
     0.4690   0.4897   0.5086   0.5741   0.6064   0.6363   0.6671   0.7285
     0.8365   0.8673   0.9074   0.9209   0.9626   0.9731   1.0247   1.0346
     1.1075   1.1163   1.1453   1.1742   1.2153   1.2519   1.2776   1.3147
     1.3355   1.3925   1.4371   1.4768   1.5353   1.5802   1.6111   1.6426
     1.6648   1.6930   1.7031   1.7262   1.7482   1.7772   1.8038   1.8171
     1.8381   1.8620   1.8927   1.9174   1.9370   1.9635   1.9730   2.0109
     2.0479   2.0697   2.0875   2.1487   2.1987   2.2315   2.3096   2.4113

     highest occupied level (ev):     3.1790

!    total energy              =   -2256.28468807 Ry
     estimated scf accuracy    <          6.6E-11 Ry

     The total energy is the sum of the following terms:
     one-electron contribution =    -987.11599759 Ry
     hartree contribution      =     621.70293978 Ry
     xc contribution           =    -647.48100114 Ry
     ewald contribution        =   -1243.39062912 Ry

     convergence has been achieved in  15 iterations

     Forces acting on atoms (cartesian axes, Ry/au):

     atom    1 type  1   force =    -0.00137367   -0.00160042    0.00227402
     atom    2 type  2   force =     0.00583121   -0.00588822   -0.00772174
     atom    3 type  3   force =     0.01296632    0.00130538   -0.00435849
     atom    4 type  3   force =    -0.00013103    0.00334502   -0.00420546
     atom    5 type  3   force =     0.00238211   -0.00710178   -0.00383463
     atom    6 type  1   force =    -0.00032289    0.00089250   -0.00297374
     atom    7 type  2   force =    -0.00454708   -0.00526213    0.00172979
     atom    8 type  3   force =    -0.00890649   -0.00773439    0.00745208
     atom    9 type  3   force =    -0.00124060    0.00468953   -0.00182733
     atom   10 type  3   force =    -0.00353635    0.00244424    0.00213989
     atom   11 type  1   force =    -0.01553353   -0.01430132   -0.00161721
     atom   12 type  2   force =     0.00234590    0.00628216    0.02080790
     atom   13 type  3   force =     0.01253022    0.00713001   -0.00508427
     atom   14 type  3   force =     0.00482543   -0.00620422    0.00392329
     atom   15 type  3   force =    -0.00151060    0.00369420   -0.00387719
     atom   16 type  1   force =    -0.00367471    0.00175629    0.00011190
     atom   17 type  2   force =    -0.00311403   -0.01106980   -0.00699765
     atom   18 type  3   force =     0.00292658    0.00432720   -0.00151502
     atom   19 type  3   force =     0.00289221    0.00251294   -0.01680636
     atom   20 type  3   force =     0.00630321    0.02168766    0.00440372
     atom   21 type  1   force =     0.00392456    0.00690621   -0.00607266
     atom   22 type  2   force =     0.00071843    0.00114027   -0.00389922
     atom   23 type  3   force =    -0.00942790    0.00135731    0.00430631
     atom   24 type  3   force =     0.01644639    0.01462901    0.00625929
     atom   25 type  3   force =     0.00469936   -0.00080881    0.00695739
     atom   26 type  1   force =    -0.00207859   -0.00259185    0.00138930
     atom   27 type  2   force =     0.01466887    0.01596628    0.00044522
     atom   28 type  3   force =     0.00841105   -0.00539370    0.00511782
     atom   29 type  3   force =    -0.00736487   -0.00460345    0.00193695
     atom   30 type  3   force =     0.00321697   -0.01369903   -0.00500395
     atom   31 type  1   force =     0.01054463    0.00239646    0.00329638
     atom   32 type  2   force =    -0.00721500   -0.01104333    0.00399088
     atom   33 type  3   force =    -0.02661131    0.00274309   -0.00965395
     atom   34 type  3   force =    -0.00445306    0.00246210    0.00115180
     atom   35 type  3   force =    -0.00408079   -0.01100470   -0.00602397
     atom   36 type  1   force =     0.00404034    0.00441349    0.00156500
     atom   37 type  2   force =    -0.00567626   -0.02690600    0.00522588
     atom   38 type  3   force =    -0.00939100   -0.01431857    0.00258227
     atom   39 type  3   force =     0.00689599    0.01282138    0.00387860
     atom   40 type  3   force =    -0.00638000    0.02462898    0.00052714

     Total force =     0.090061     Total SCF correction =     0.000033


     Computing stress (Cartesian axis) and pressure

          total   stress  (Ry/bohr**3)                   (kbar)     P=       -7.56
  -0.00005391   0.00000430  -0.00000179           -7.93        0.63       -0.26
   0.00000430  -0.00003839  -0.00000431            0.63       -5.65       -0.63
  -0.00000179  -0.00000431  -0.00006189           -0.26       -0.63       -9.10

 
     init_run     :     19.89s CPU     16.87s WALL (       1 calls)
     electrons    :    201.04s CPU    211.20s WALL (       1 calls)
     forces       :      8.79s CPU      3.88s WALL (       1 calls)
     stress       :     31.08s CPU     30.34s WALL (       1 calls)

     Called by init_run:
     wfcinit      :     12.12s CPU     13.83s WALL (       1 calls)
                                       13.83s GPU  (       1 calls)
     potinit      :      4.51s CPU      1.41s WALL (       1 calls)
     hinit0       :      2.68s CPU      0.97s WALL (       1 calls)

     Called by electrons:
     c_bands      :    121.20s CPU    169.59s WALL (      16 calls)
     sum_band     :     21.44s CPU     20.51s WALL (      16 calls)
                                       20.51s GPU  (      16 calls)
     v_of_rho     :     54.20s CPU     16.49s WALL (      16 calls)
     mix_rho      :      6.26s CPU      4.83s WALL (      16 calls)

     Called by c_bands:
     init_us_2    :      2.56s CPU      3.22s WALL (     280 calls)
                                        3.22s GPU  (     280 calls)
     cegterg      :     80.41s CPU    126.19s WALL (     128 calls)

     Called by *egterg:
     cdiaghg      :     14.20s CPU     25.77s WALL (     654 calls)
                                       25.74s GPU  (     654 calls)
     h_psi        :     54.36s CPU     72.98s WALL (     670 calls)
                                       72.54s GPU  (     670 calls)
     g_psi        :      0.00s CPU      0.35s WALL (     534 calls)
                                        0.34s GPU  (     534 calls)

     Called by h_psi:
     h_psi:calbec :      0.30s CPU      9.82s WALL (     670 calls)
                                        9.81s GPU  (     670 calls)
     vloc_psi     :     39.23s CPU     53.44s WALL (     670 calls)
                                       52.53s GPU  (     670 calls)
     add_vuspsi   :      0.34s CPU      9.64s WALL (     670 calls)
                                        9.63s GPU  (     670 calls)

     General routines
     calbec       :      0.30s CPU      0.40s WALL (     710 calls)
     fft          :     25.41s CPU      6.51s WALL (     185 calls)
                                        0.01s GPU  (       6 calls)
     ffts         :      2.62s CPU      0.68s WALL (      16 calls)
     fftw         :      0.61s CPU     61.98s WALL (   10372 calls)
                                       46.30s GPU  (   10372 calls)
 
     Parallel routines
 
     PWSCF        :   4m21.55s CPU   4m23.13s WALL

 
   This run was terminated on:  21:28:52  22Apr2021            

=------------------------------------------------------------------------------=
   JOB DONE.
=------------------------------------------------------------------------------=
