
     Program PWSCF v.6.7MaX starts on 22Apr2021 at 22:39:47 

     This program is part of the open-source Quantum ESPRESSO suite
     for quantum simulation of materials; please cite
         "P. Giannozzi et al., J. Phys.:Condens. Matter 21 395502 (2009);
         "P. Giannozzi et al., J. Phys.:Condens. Matter 29 465901 (2017);
         "P. Giannozzi et al., J. Chem. Phys. 152 154105 (2020);
          URL http://www.quantum-espresso.org", 
     in publications or presentations arising from this work. More details at
     http://www.quantum-espresso.org/quote

     Parallel version (MPI & OpenMP), running on      16 processor cores
     Number of MPI processes:                 4
     Threads/MPI process:                     4

     MPI processes distributed on     1 nodes
     K-points division:     npool     =       4
     Reading input from ESP_31.pwi
Warning: card &CELL ignored
Warning: card / ignored

     Current dimensions of program PWSCF are:
     Max number of different atomic species (ntypx) = 10
     Max number of k-points (npk) =  40000
     Max angular momentum in pseudopotentials (lmaxx) =  3
     Message from routine read_pp_mesh:
     mesh size missing, using the one in header
     Message from routine read_pp_mesh:
     mesh size missing, using the one in header
     Message from routine read_pp_mesh:
     mesh size missing, using the one in header

     Subspace diagonalization in iterative solution of the eigenvalue problem:
     a serial algorithm will be used

 
     G-vector sticks info
     --------------------
     sticks:   dense  smooth     PW     G-vecs:    dense   smooth      PW
     Sum       12589   12589   3289              1061107  1061107  140905
 
     Using Slab Decomposition
 


     bravais-lattice index     =            0
     lattice parameter (alat)  =      23.7585  a.u.
     unit-cell volume          =   13410.8736 (a.u.)^3
     number of atoms/cell      =           40
     number of atomic types    =            3
     number of electrons       =       352.00
     number of Kohn-Sham states=          176
     kinetic-energy cutoff     =      70.0000  Ry
     charge density cutoff     =     280.0000  Ry
     scf convergence threshold =      1.0E-10
     mixing beta               =       0.7000
     number of iterations used =            8  plain     mixing
     Exchange-correlation= PBESOL
                           (   1   4  10   8   0   0   0)

     GPU acceleration is ACTIVE.


     celldm(1)=  23.758500  celldm(2)=   0.000000  celldm(3)=   0.000000
     celldm(4)=   0.000000  celldm(5)=   0.000000  celldm(6)=   0.000000

     crystal axes: (cart. coord. in units of alat)
               a(1) = (   1.000000   0.000000   0.000000 )  
               a(2) = (   0.000000   1.000000   0.000000 )  
               a(3) = (   0.000000   0.000000   1.000000 )  

     reciprocal axes: (cart. coord. in units 2 pi/alat)
               b(1) = (  1.000000  0.000000  0.000000 )  
               b(2) = (  0.000000  1.000000  0.000000 )  
               b(3) = (  0.000000  0.000000  1.000000 )  


     PseudoPot. # 1 for Cs read from file:
     /m100/home/userexternal/lmonacel/espresso/pseudo/Cs-nc-pbesol.upf
     MD5 check sum: 9d2f2206a14dc5b3b3f3fbfae186bed4
     Pseudo is Norm-conserving + core correction, Zval =  9.0
     Generated using ONCVPSP code by D. R. Hamann
     Using radial grid of 2384 points,  8 beta functions with: 
                l(1) =   0
                l(2) =   0
                l(3) =   1
                l(4) =   1
                l(5) =   2
                l(6) =   2
                l(7) =   3
                l(8) =   3

     PseudoPot. # 2 for Sn read from file:
     /m100/home/userexternal/lmonacel/espresso/pseudo/Sn-nc-pbesol.upf
     MD5 check sum: c2995d571af40102bfea7461443d92cf
     Pseudo is Norm-conserving + core correction, Zval = 14.0
     Generated using ONCVPSP code by D. R. Hamann
     Using radial grid of 1628 points,  6 beta functions with: 
                l(1) =   0
                l(2) =   0
                l(3) =   1
                l(4) =   1
                l(5) =   2
                l(6) =   2

     PseudoPot. # 3 for I  read from file:
     /m100/home/userexternal/lmonacel/espresso/pseudo/I-nc-pbesol.upf
     MD5 check sum: 80ed5ceb2eb9c553cfb6760a299d9c5b
     Pseudo is Norm-conserving + core correction, Zval =  7.0
     Generated using ONCVPSP code by D. R. Hamann
     Using radial grid of 1182 points,  6 beta functions with: 
                l(1) =   0
                l(2) =   0
                l(3) =   1
                l(4) =   1
                l(5) =   2
                l(6) =   2

     atomic species   valence    mass     pseudopotential
        Cs             9.00   132.90545     Cs( 1.00)
        Sn            14.00   118.71000     Sn( 1.00)
        I              7.00   126.90447     I ( 1.00)

     No symmetry found



   Cartesian axes

     site n.     atom                  positions (alat units)
         1           Cs  tau(   1) = (   0.2577207   0.2821438   0.2309513  )
         2           Sn  tau(   2) = (  -0.0026876  -0.0048271   0.0026934  )
         3           I   tau(   3) = (   0.2677225  -0.0134277  -0.0160890  )
         4           I   tau(   4) = (  -0.0029113  -0.0054471   0.2460643  )
         5           I   tau(   5) = (   0.0261028   0.2487773   0.0026260  )
         6           Cs  tau(   6) = (   0.2612581   0.2800065   0.7464341  )
         7           Sn  tau(   7) = (   0.0012343  -0.0035783   0.5067606  )
         8           I   tau(   8) = (   0.2522746  -0.0022973   0.5020035  )
         9           I   tau(   9) = (   0.0047323   0.0204776   0.7533557  )
        10           I   tau(  10) = (  -0.0143329   0.2293167   0.5144070  )
        11           Cs  tau(  11) = (   0.2504356   0.7449674   0.2663502  )
        12           Sn  tau(  12) = (   0.0154798   0.4906196  -0.0142902  )
        13           I   tau(  13) = (   0.2616408   0.4987256  -0.0218003  )
        14           I   tau(  14) = (  -0.0088947   0.5102443   0.2375852  )
        15           I   tau(  15) = (   0.0048463   0.7361640   0.0009357  )
        16           Cs  tau(  16) = (   0.2154445   0.7426703   0.7499268  )
        17           Sn  tau(  17) = (  -0.0134832   0.4850634   0.4863067  )
        18           I   tau(  18) = (   0.2272245   0.4845275   0.4782009  )
        19           I   tau(  19) = (  -0.0239952   0.5006037   0.7393627  )
        20           I   tau(  20) = (   0.0047670   0.7364856   0.5024298  )
        21           Cs  tau(  21) = (   0.7603793   0.2526680   0.2782445  )
        22           Sn  tau(  22) = (   0.5002171  -0.0087130   0.0055526  )
        23           I   tau(  23) = (   0.7634945   0.0250835  -0.0005669  )
        24           I   tau(  24) = (   0.4822079  -0.0159377   0.2586222  )
        25           I   tau(  25) = (   0.5026824   0.2622056   0.0229469  )
        26           Cs  tau(  26) = (   0.7467668   0.2566495   0.7613963  )
        27           Sn  tau(  27) = (   0.5006855   0.0026166   0.5068973  )
        28           I   tau(  28) = (   0.7528230   0.0036344   0.5363442  )
        29           I   tau(  29) = (   0.4976248   0.0028329   0.7470039  )
        30           I   tau(  30) = (   0.4936098   0.2425495   0.4847516  )
        31           Cs  tau(  31) = (   0.7323671   0.7704803   0.2684604  )
        32           Sn  tau(  32) = (   0.5098997   0.4911511  -0.0026622  )
        33           I   tau(  33) = (   0.7630338   0.4873012  -0.0168870  )
        34           I   tau(  34) = (   0.5079357   0.5270493   0.2401707  )
        35           I   tau(  35) = (   0.5362518   0.7475058  -0.0170087  )
        36           Cs  tau(  36) = (   0.7637084   0.7165048   0.7483877  )
        37           Sn  tau(  37) = (   0.4859275   0.5112865   0.5041334  )
        38           I   tau(  38) = (   0.7391646   0.5020700   0.4983650  )
        39           I   tau(  39) = (   0.4788915   0.5194792   0.7502797  )
        40           I   tau(  40) = (   0.4981372   0.7378382   0.5086847  )

     number of k points=    32
                       cart. coord. in units 2pi/alat
        k(    1) = (   0.1250000   0.1250000   0.1250000), wk =   0.0625000
        k(    2) = (   0.1250000   0.1250000   0.3750000), wk =   0.0625000
        k(    3) = (   0.1250000   0.3750000   0.3750000), wk =   0.0625000
        k(    4) = (   0.3750000   0.3750000   0.3750000), wk =   0.0625000
        k(    5) = (  -0.1250000  -0.1250000   0.1250000), wk =   0.0625000
        k(    6) = (  -0.1250000   0.1250000  -0.1250000), wk =   0.0625000
        k(    7) = (   0.1250000  -0.1250000  -0.1250000), wk =   0.0625000
        k(    8) = (  -0.1250000  -0.1250000   0.3750000), wk =   0.0625000
        k(    9) = (  -0.1250000   0.1250000  -0.3750000), wk =   0.0625000
        k(   10) = (   0.1250000  -0.1250000  -0.3750000), wk =   0.0625000
        k(   11) = (   0.3750000  -0.1250000   0.1250000), wk =   0.0625000
        k(   12) = (  -0.3750000  -0.1250000  -0.1250000), wk =   0.0625000
        k(   13) = (   0.3750000   0.1250000  -0.1250000), wk =   0.0625000
        k(   14) = (  -0.3750000   0.1250000   0.1250000), wk =   0.0625000
        k(   15) = (  -0.1250000   0.3750000   0.1250000), wk =   0.0625000
        k(   16) = (  -0.1250000  -0.3750000  -0.1250000), wk =   0.0625000
        k(   17) = (   0.1250000   0.3750000  -0.1250000), wk =   0.0625000
        k(   18) = (   0.1250000  -0.3750000   0.1250000), wk =   0.0625000
        k(   19) = (  -0.1250000  -0.3750000   0.3750000), wk =   0.0625000
        k(   20) = (  -0.1250000   0.3750000  -0.3750000), wk =   0.0625000
        k(   21) = (   0.1250000  -0.3750000  -0.3750000), wk =   0.0625000
        k(   22) = (   0.3750000   0.1250000  -0.3750000), wk =   0.0625000
        k(   23) = (  -0.3750000  -0.1250000  -0.3750000), wk =   0.0625000
        k(   24) = (   0.3750000  -0.1250000   0.3750000), wk =   0.0625000
        k(   25) = (  -0.3750000   0.1250000   0.3750000), wk =   0.0625000
        k(   26) = (   0.3750000  -0.3750000   0.1250000), wk =   0.0625000
        k(   27) = (  -0.3750000  -0.3750000  -0.1250000), wk =   0.0625000
        k(   28) = (   0.3750000   0.3750000  -0.1250000), wk =   0.0625000
        k(   29) = (  -0.3750000   0.3750000   0.1250000), wk =   0.0625000
        k(   30) = (  -0.3750000  -0.3750000   0.3750000), wk =   0.0625000
        k(   31) = (  -0.3750000   0.3750000  -0.3750000), wk =   0.0625000
        k(   32) = (   0.3750000  -0.3750000  -0.3750000), wk =   0.0625000

     Dense  grid:  1061107 G-vectors     FFT dimensions: ( 128, 128, 128)

     Estimated max dynamical RAM per process >       6.82 GB

     Estimated total dynamical RAM >      27.27 GB

     Initial potential from superposition of free atoms

     starting charge  351.69472, renormalised to  352.00000
     Starting wfcs are  208 randomized atomic wfcs

     total cpu time spent up to now is       17.5 secs

     Self-consistent Calculation

     iteration #  1     ecut=    70.00 Ry     beta= 0.70
     Davidson diagonalization with overlap
     ethr =  1.00E-02,  avg # of iterations =  2.0

     Threshold (ethr) on eigenvalues was too large:
     Diagonalizing with lowered threshold

     Davidson diagonalization with overlap
     ethr =  2.04E-04,  avg # of iterations =  4.0

     total cpu time spent up to now is       38.4 secs

     total energy              =   -2256.08134646 Ry
     estimated scf accuracy    <       0.61376988 Ry

     iteration #  2     ecut=    70.00 Ry     beta= 0.70
     Davidson diagonalization with overlap
     ethr =  1.74E-04,  avg # of iterations =  3.3

     total cpu time spent up to now is       51.1 secs

     total energy              =   -2256.27858301 Ry
     estimated scf accuracy    <       0.22782279 Ry

     iteration #  3     ecut=    70.00 Ry     beta= 0.70
     Davidson diagonalization with overlap
     ethr =  6.47E-05,  avg # of iterations =  2.3

     total cpu time spent up to now is       62.7 secs

     total energy              =   -2256.32020194 Ry
     estimated scf accuracy    <       0.01247475 Ry

     iteration #  4     ecut=    70.00 Ry     beta= 0.70
     Davidson diagonalization with overlap
     ethr =  3.54E-06,  avg # of iterations =  4.3

     total cpu time spent up to now is       76.6 secs

     total energy              =   -2256.32504808 Ry
     estimated scf accuracy    <       0.00778411 Ry

     iteration #  5     ecut=    70.00 Ry     beta= 0.70
     Davidson diagonalization with overlap
     ethr =  2.21E-06,  avg # of iterations =  3.3

     total cpu time spent up to now is       88.6 secs

     total energy              =   -2256.32639793 Ry
     estimated scf accuracy    <       0.00078058 Ry

     iteration #  6     ecut=    70.00 Ry     beta= 0.70
     Davidson diagonalization with overlap
     ethr =  2.22E-07,  avg # of iterations =  4.1

     total cpu time spent up to now is      101.5 secs

     total energy              =   -2256.32654503 Ry
     estimated scf accuracy    <       0.00021625 Ry

     iteration #  7     ecut=    70.00 Ry     beta= 0.70
     Davidson diagonalization with overlap
     ethr =  6.14E-08,  avg # of iterations =  3.8

     total cpu time spent up to now is      113.9 secs

     total energy              =   -2256.32658778 Ry
     estimated scf accuracy    <       0.00002109 Ry

     iteration #  8     ecut=    70.00 Ry     beta= 0.70
     Davidson diagonalization with overlap
     ethr =  5.99E-09,  avg # of iterations =  6.0

     total cpu time spent up to now is      129.3 secs

     total energy              =   -2256.32660055 Ry
     estimated scf accuracy    <       0.00000405 Ry

     iteration #  9     ecut=    70.00 Ry     beta= 0.70
     Davidson diagonalization with overlap
     ethr =  1.15E-09,  avg # of iterations =  3.9

     total cpu time spent up to now is      142.4 secs

     total energy              =   -2256.32660146 Ry
     estimated scf accuracy    <       0.00000112 Ry

     iteration # 10     ecut=    70.00 Ry     beta= 0.70
     Davidson diagonalization with overlap
     ethr =  3.17E-10,  avg # of iterations =  3.9

     total cpu time spent up to now is      155.3 secs

     total energy              =   -2256.32660177 Ry
     estimated scf accuracy    <       0.00000008 Ry

     iteration # 11     ecut=    70.00 Ry     beta= 0.70
     Davidson diagonalization with overlap
     ethr =  2.30E-11,  avg # of iterations =  7.0

     total cpu time spent up to now is      172.4 secs

     total energy              =   -2256.32660185 Ry
     estimated scf accuracy    <       0.00000005 Ry

     iteration # 12     ecut=    70.00 Ry     beta= 0.70
     Davidson diagonalization with overlap
     ethr =  1.42E-11,  avg # of iterations =  2.7

     total cpu time spent up to now is      184.5 secs

     total energy              =   -2256.32660185 Ry
     estimated scf accuracy    <       0.00000001 Ry

     iteration # 13     ecut=    70.00 Ry     beta= 0.70
     Davidson diagonalization with overlap
     ethr =  2.88E-12,  avg # of iterations =  4.8

     total cpu time spent up to now is      198.6 secs

     total energy              =   -2256.32660186 Ry
     estimated scf accuracy    <          6.0E-10 Ry

     iteration # 14     ecut=    70.00 Ry     beta= 0.70
     Davidson diagonalization with overlap
     ethr =  1.69E-13,  avg # of iterations =  8.3

     total cpu time spent up to now is      220.4 secs

     total energy              =   -2256.32660186 Ry
     estimated scf accuracy    <          3.2E-10 Ry

     iteration # 15     ecut=    70.00 Ry     beta= 0.70
     Davidson diagonalization with overlap
     ethr =  1.00E-13,  avg # of iterations =  2.9

     total cpu time spent up to now is      231.8 secs

     End of self-consistent calculation

          k = 0.1250 0.1250 0.1250 (132670 PWs)   bands (ev):

   -18.5146 -18.4663 -18.4429 -18.4370 -18.4257 -18.3980 -18.3655 -18.3215
   -18.3108 -18.3096 -18.2975 -18.2959 -18.2939 -18.2868 -18.2862 -18.2808
   -18.2781 -18.2775 -18.2103 -18.1989 -18.1967 -18.1885 -18.1803 -18.1793
   -18.1774 -18.1730 -18.1724 -18.1693 -18.1688 -18.1671 -18.1665 -18.1599
   -18.1582 -18.1582 -18.1580 -18.1568 -18.1544 -18.1541 -18.1499 -18.1490
   -18.1471 -18.1437 -18.1373 -18.1366 -18.1267 -18.1219 -18.1132 -18.1091
    -9.4317  -9.2932  -9.2793  -9.1732  -9.1053  -9.0810  -9.0437  -8.9976
    -8.9804  -8.9590  -8.8995  -8.8799  -8.8450  -8.8356  -8.8169  -8.7900
    -8.7794  -8.7456  -8.7268  -8.6916  -8.6657  -8.6406  -8.5957  -8.5517
    -5.2810  -5.2671  -5.2613  -5.2356  -5.2260  -5.2243  -5.2115  -5.2088
    -5.2046  -5.2001  -5.1948  -5.1887  -5.1868  -5.1805  -5.1756  -5.1649
    -5.1616  -5.1543  -5.1384  -5.1304  -5.1158  -5.0620  -5.0532  -5.0413
    -4.4582  -3.9338  -3.9226  -3.8840  -3.3722  -3.3340  -3.3154  -2.7001
    -0.7602  -0.7125  -0.6640  -0.5904  -0.5768  -0.5596  -0.5132  -0.4951
    -0.4500  -0.3475  -0.3112  -0.2890   0.4278   0.4894   0.5059   0.6344
     0.6696   0.7107   0.7400   0.7744   0.7971   0.8929   0.9646   0.9770
     0.9980   1.0416   1.0858   1.1186   1.1313   1.1486   1.1874   1.1964
     1.2517   1.2701   1.2748   1.2955   1.3350   1.3708   1.4027   1.4137
     1.4359   1.4592   1.4875   1.5033   1.5137   1.5489   1.5662   1.5763
     1.5939   1.6144   1.6297   1.6489   1.6633   1.6760   1.6982   1.7088
     1.7319   1.7630   1.8665   1.9874   2.0418   2.0664   2.1016   2.1131
     2.1761   2.1848   2.2156   2.3105   2.6732   2.7307   2.8163   3.1614

          k = 0.1250 0.1250 0.3750 (132608 PWs)   bands (ev):

   -18.5146 -18.4662 -18.4429 -18.4370 -18.4257 -18.3980 -18.3655 -18.3215
   -18.3108 -18.3096 -18.2975 -18.2959 -18.2939 -18.2868 -18.2862 -18.2808
   -18.2781 -18.2775 -18.2103 -18.1989 -18.1967 -18.1885 -18.1803 -18.1793
   -18.1774 -18.1730 -18.1724 -18.1692 -18.1688 -18.1671 -18.1665 -18.1599
   -18.1582 -18.1582 -18.1580 -18.1568 -18.1544 -18.1541 -18.1499 -18.1490
   -18.1471 -18.1437 -18.1373 -18.1366 -18.1267 -18.1219 -18.1132 -18.1091
    -9.4114  -9.3164  -9.2768  -9.1560  -9.1335  -9.0811  -9.0481  -9.0098
    -8.9790  -8.9572  -8.9097  -8.8836  -8.8423  -8.8296  -8.8183  -8.7718
    -8.7634  -8.7227  -8.7131  -8.6961  -8.6671  -8.6538  -8.5988  -8.5686
    -5.2806  -5.2668  -5.2609  -5.2358  -5.2259  -5.2243  -5.2116  -5.2082
    -5.2044  -5.2001  -5.1946  -5.1887  -5.1868  -5.1806  -5.1753  -5.1654
    -5.1619  -5.1546  -5.1387  -5.1306  -5.1161  -5.0621  -5.0535  -5.0412
    -4.3292  -4.0966  -3.8041  -3.7502  -3.5598  -3.5155  -3.1916  -2.9381
    -0.7246  -0.6661  -0.6383  -0.5699  -0.5283  -0.4718  -0.4389  -0.3806
    -0.1318  -0.1111  -0.0031   0.0660   0.3977   0.4556   0.5112   0.5384
     0.5788   0.6088   0.6347   0.6695   0.7102   0.7318   0.7716   0.8449
     0.8894   0.9135   0.9786   1.0576   1.0808   1.1189   1.1375   1.1453
     1.2005   1.2568   1.2854   1.2970   1.3486   1.3819   1.4056   1.4132
     1.4325   1.4475   1.4891   1.5127   1.5396   1.5679   1.5879   1.6024
     1.6109   1.6259   1.6576   1.6689   1.6888   1.7104   1.7336   1.7696
     1.7903   1.8180   1.8576   1.9064   1.9461   1.9754   2.0320   2.0488
     2.1274   2.1488   2.2444   2.2688   2.4229   2.4492   2.7830   2.9207

          k = 0.1250 0.3750 0.3750 (132616 PWs)   bands (ev):

   -18.5146 -18.4662 -18.4429 -18.4370 -18.4257 -18.3980 -18.3655 -18.3215
   -18.3108 -18.3096 -18.2975 -18.2959 -18.2939 -18.2868 -18.2862 -18.2808
   -18.2781 -18.2775 -18.2103 -18.1989 -18.1967 -18.1885 -18.1803 -18.1793
   -18.1774 -18.1730 -18.1724 -18.1693 -18.1688 -18.1671 -18.1666 -18.1599
   -18.1582 -18.1582 -18.1580 -18.1568 -18.1544 -18.1541 -18.1499 -18.1490
   -18.1471 -18.1437 -18.1373 -18.1366 -18.1267 -18.1219 -18.1132 -18.1091
    -9.4011  -9.3071  -9.2833  -9.1682  -9.1215  -9.1070  -9.0558  -9.0295
    -8.9808  -8.9518  -8.9169  -8.8758  -8.8239  -8.8142  -8.7964  -8.7656
    -8.7534  -8.7335  -8.7139  -8.6931  -8.6744  -8.6656  -8.6059  -8.5696
    -5.2805  -5.2666  -5.2608  -5.2358  -5.2260  -5.2244  -5.2105  -5.2072
    -5.2049  -5.2023  -5.1937  -5.1888  -5.1879  -5.1803  -5.1753  -5.1650
    -5.1615  -5.1544  -5.1391  -5.1306  -5.1159  -5.0621  -5.0535  -5.0414
    -4.2069  -3.9771  -3.9477  -3.7273  -3.6287  -3.4153  -3.3859  -3.1445
    -0.6970  -0.6540  -0.5146  -0.4461  -0.3203  -0.2377  -0.1744  -0.1445
    -0.0553  -0.0112   0.0585   0.0886   0.3597   0.4397   0.4765   0.5103
     0.5421   0.5511   0.6024   0.6069   0.6252   0.6595   0.6747   0.7424
     0.8224   0.8698   0.9428   0.9776   1.0137   1.0360   1.0567   1.0703
     1.1482   1.1921   1.2100   1.2533   1.3025   1.3316   1.3532   1.3859
     1.4289   1.4664   1.5002   1.5437   1.5636   1.5868   1.6116   1.6282
     1.6436   1.6651   1.6863   1.7076   1.7407   1.7644   1.7839   1.8092
     1.8236   1.8365   1.8681   1.8827   1.9421   1.9578   1.9654   1.9873
     2.0114   2.0641   2.1020   2.1766   2.2812   2.4035   2.5115   2.6102

          k = 0.3750 0.3750 0.3750 (132612 PWs)   bands (ev):

   -18.5146 -18.4662 -18.4429 -18.4370 -18.4257 -18.3980 -18.3655 -18.3214
   -18.3108 -18.3096 -18.2975 -18.2959 -18.2939 -18.2868 -18.2862 -18.2808
   -18.2781 -18.2775 -18.2103 -18.1989 -18.1967 -18.1885 -18.1803 -18.1793
   -18.1774 -18.1731 -18.1724 -18.1691 -18.1689 -18.1671 -18.1666 -18.1599
   -18.1582 -18.1582 -18.1580 -18.1568 -18.1544 -18.1541 -18.1499 -18.1490
   -18.1471 -18.1437 -18.1373 -18.1366 -18.1267 -18.1219 -18.1132 -18.1091
    -9.3854  -9.3026  -9.2862  -9.1819  -9.1527  -9.1012  -9.0622  -9.0272
    -8.9791  -8.9400  -8.9222  -8.8756  -8.8283  -8.8043  -8.7980  -8.7550
    -8.7412  -8.7321  -8.7086  -8.6889  -8.6815  -8.6531  -8.6166  -8.5840
    -5.2806  -5.2667  -5.2609  -5.2355  -5.2260  -5.2242  -5.2108  -5.2076
    -5.2048  -5.2019  -5.1932  -5.1901  -5.1873  -5.1805  -5.1754  -5.1652
    -5.1620  -5.1542  -5.1385  -5.1303  -5.1158  -5.0618  -5.0533  -5.0413
    -4.0769  -3.8814  -3.8456  -3.7720  -3.6343  -3.5763  -3.5428  -3.3422
    -0.4282  -0.3563  -0.3064  -0.2472  -0.2000  -0.1679  -0.1378  -0.0792
    -0.0400   0.0253   0.0515   0.2182   0.3146   0.3606   0.3927   0.4557
     0.4783   0.5000   0.5388   0.5583   0.5941   0.6283   0.6359   0.6869
     0.8388   0.8979   0.9204   0.9412   0.9780   1.0048   1.0287   1.0536
     1.1045   1.1338   1.1494   1.1805   1.2049   1.2447   1.2804   1.3071
     1.3922   1.4610   1.4862   1.5295   1.5680   1.6152   1.6491   1.6616
     1.6887   1.7095   1.7188   1.7467   1.7736   1.7835   1.7975   1.8162
     1.8440   1.8595   1.8812   1.9021   1.9192   1.9474   1.9557   1.9749
     1.9944   2.0132   2.0426   2.0699   2.1032   2.1476   2.1890   2.3128

          k =-0.1250-0.1250 0.1250 (132670 PWs)   bands (ev):

   -18.5146 -18.4663 -18.4429 -18.4370 -18.4257 -18.3980 -18.3655 -18.3215
   -18.3108 -18.3096 -18.2975 -18.2959 -18.2939 -18.2868 -18.2862 -18.2808
   -18.2781 -18.2775 -18.2103 -18.1989 -18.1967 -18.1885 -18.1803 -18.1793
   -18.1774 -18.1730 -18.1724 -18.1693 -18.1688 -18.1671 -18.1665 -18.1599
   -18.1582 -18.1582 -18.1580 -18.1568 -18.1544 -18.1541 -18.1499 -18.1490
   -18.1471 -18.1437 -18.1373 -18.1366 -18.1267 -18.1219 -18.1132 -18.1091
    -9.4312  -9.2979  -9.2760  -9.1730  -9.1042  -9.0750  -9.0495  -9.0084
    -8.9658  -8.9602  -8.8984  -8.8856  -8.8431  -8.8343  -8.8241  -8.7893
    -8.7748  -8.7435  -8.7289  -8.6906  -8.6663  -8.6408  -8.5955  -8.5519
    -5.2810  -5.2672  -5.2611  -5.2354  -5.2264  -5.2244  -5.2111  -5.2088
    -5.2045  -5.2000  -5.1952  -5.1889  -5.1867  -5.1804  -5.1756  -5.1650
    -5.1618  -5.1541  -5.1384  -5.1306  -5.1156  -5.0619  -5.0532  -5.0414
    -4.4575  -3.9398  -3.9175  -3.8849  -3.3733  -3.3324  -3.3147  -2.6997
    -0.7775  -0.7024  -0.6719  -0.5930  -0.5832  -0.5439  -0.5273  -0.4971
    -0.4241  -0.3399  -0.3108  -0.2911   0.4258   0.4898   0.5080   0.6337
     0.6721   0.7061   0.7313   0.7605   0.8079   0.9100   0.9468   0.9703
     0.9931   1.0362   1.0737   1.1123   1.1270   1.1772   1.2052   1.2371
     1.2463   1.2612   1.2921   1.3049   1.3199   1.3463   1.3777   1.3968
     1.4409   1.4635   1.4897   1.5006   1.5256   1.5415   1.5528   1.5788
     1.6010   1.6196   1.6323   1.6477   1.6732   1.6879   1.6964   1.7078
     1.7358   1.7801   1.8543   1.9783   2.0433   2.0725   2.0854   2.1149
     2.1467   2.1764   2.2403   2.3078   2.6754   2.7503   2.8153   3.1734

          k =-0.1250 0.1250-0.1250 (132670 PWs)   bands (ev):

   -18.5146 -18.4663 -18.4429 -18.4370 -18.4257 -18.3980 -18.3655 -18.3215
   -18.3108 -18.3096 -18.2975 -18.2959 -18.2939 -18.2868 -18.2862 -18.2808
   -18.2781 -18.2775 -18.2103 -18.1989 -18.1967 -18.1885 -18.1803 -18.1793
   -18.1774 -18.1730 -18.1724 -18.1693 -18.1688 -18.1671 -18.1665 -18.1599
   -18.1582 -18.1582 -18.1580 -18.1568 -18.1544 -18.1541 -18.1499 -18.1490
   -18.1471 -18.1437 -18.1373 -18.1366 -18.1267 -18.1219 -18.1132 -18.1091
    -9.4315  -9.2888  -9.2844  -9.1752  -9.1084  -9.0674  -9.0438  -9.0104
    -8.9763  -8.9577  -8.8992  -8.8827  -8.8485  -8.8305  -8.8166  -8.7912
    -8.7770  -8.7485  -8.7244  -8.6926  -8.6648  -8.6403  -8.5962  -8.5518
    -5.2811  -5.2669  -5.2613  -5.2355  -5.2264  -5.2242  -5.2117  -5.2083
    -5.2044  -5.2003  -5.1951  -5.1889  -5.1865  -5.1805  -5.1756  -5.1646
    -5.1620  -5.1543  -5.1386  -5.1305  -5.1155  -5.0619  -5.0533  -5.0413
    -4.4577  -3.9333  -3.9213  -3.8878  -3.3663  -3.3319  -3.3223  -2.6991
    -0.7630  -0.7214  -0.6688  -0.6061  -0.5718  -0.5564  -0.4988  -0.4925
    -0.4466  -0.3506  -0.3148  -0.2712   0.4254   0.4896   0.5099   0.6262
     0.6688   0.7127   0.7439   0.7738   0.7934   0.8802   0.9541   0.9849
     1.0086   1.0376   1.0677   1.1016   1.1391   1.1619   1.1944   1.2195
     1.2385   1.2778   1.2855   1.3177   1.3382   1.3514   1.3764   1.4228
     1.4300   1.4661   1.4863   1.5074   1.5144   1.5360   1.5580   1.5770
     1.5907   1.6071   1.6299   1.6429   1.6645   1.6838   1.7051   1.7179
     1.7341   1.7719   1.8651   1.9846   2.0446   2.0595   2.0962   2.1128
     2.1640   2.1971   2.2090   2.3101   2.6695   2.7522   2.8074   3.1851

          k = 0.1250-0.1250-0.1250 (132670 PWs)   bands (ev):

   -18.5146 -18.4663 -18.4429 -18.4370 -18.4257 -18.3980 -18.3655 -18.3215
   -18.3108 -18.3096 -18.2975 -18.2959 -18.2939 -18.2868 -18.2862 -18.2808
   -18.2781 -18.2775 -18.2103 -18.1989 -18.1967 -18.1885 -18.1803 -18.1793
   -18.1774 -18.1730 -18.1724 -18.1693 -18.1688 -18.1671 -18.1665 -18.1599
   -18.1582 -18.1582 -18.1580 -18.1568 -18.1544 -18.1541 -18.1499 -18.1490
   -18.1471 -18.1437 -18.1373 -18.1366 -18.1267 -18.1219 -18.1132 -18.1091
    -9.4317  -9.2911  -9.2812  -9.1754  -9.1063  -9.0737  -9.0469  -8.9974
    -8.9810  -8.9597  -8.8969  -8.8842  -8.8500  -8.8289  -8.8165  -8.7926
    -8.7735  -8.7478  -8.7297  -8.6906  -8.6649  -8.6408  -8.5956  -8.5519
    -5.2811  -5.2671  -5.2610  -5.2354  -5.2260  -5.2246  -5.2117  -5.2081
    -5.2044  -5.2004  -5.1954  -5.1889  -5.1863  -5.1806  -5.1755  -5.1648
    -5.1619  -5.1541  -5.1386  -5.1304  -5.1156  -5.0619  -5.0533  -5.0413
    -4.4577  -3.9323  -3.9237  -3.8862  -3.3643  -3.3363  -3.3199  -2.6993
    -0.7759  -0.7166  -0.6414  -0.6071  -0.5773  -0.5532  -0.5186  -0.5057
    -0.4259  -0.3419  -0.3170  -0.2837   0.4271   0.4880   0.5078   0.6341
     0.6606   0.7168   0.7440   0.7697   0.7962   0.9074   0.9511   0.9691
     1.0074   1.0210   1.0645   1.1143   1.1468   1.1675   1.1850   1.2307
     1.2570   1.2636   1.2788   1.2998   1.3334   1.3483   1.3913   1.4146
     1.4214   1.4690   1.4968   1.5050   1.5220   1.5372   1.5532   1.5744
     1.5857   1.6150   1.6281   1.6378   1.6715   1.6818   1.6879   1.7244
     1.7479   1.7818   1.8502   1.9867   2.0433   2.0722   2.0851   2.1154
     2.1566   2.1979   2.2297   2.3056   2.6764   2.7302   2.8152   3.1723

          k =-0.1250-0.1250 0.3750 (132608 PWs)   bands (ev):

   -18.5146 -18.4662 -18.4429 -18.4370 -18.4257 -18.3980 -18.3655 -18.3215
   -18.3108 -18.3096 -18.2975 -18.2959 -18.2939 -18.2868 -18.2862 -18.2808
   -18.2781 -18.2775 -18.2103 -18.1989 -18.1967 -18.1885 -18.1803 -18.1793
   -18.1774 -18.1730 -18.1724 -18.1692 -18.1688 -18.1671 -18.1665 -18.1599
   -18.1582 -18.1582 -18.1580 -18.1568 -18.1544 -18.1541 -18.1499 -18.1490
   -18.1471 -18.1437 -18.1373 -18.1366 -18.1267 -18.1219 -18.1132 -18.1091
    -9.4104  -9.3202  -9.2747  -9.1555  -9.1329  -9.0777  -9.0514  -9.0137
    -8.9745  -8.9554  -8.9115  -8.8850  -8.8408  -8.8307  -8.8204  -8.7746
    -8.7582  -8.7214  -8.7145  -8.6959  -8.6660  -8.6552  -8.5984  -8.5691
    -5.2807  -5.2669  -5.2606  -5.2355  -5.2264  -5.2243  -5.2113  -5.2081
    -5.2044  -5.2000  -5.1950  -5.1889  -5.1867  -5.1805  -5.1753  -5.1655
    -5.1621  -5.1544  -5.1386  -5.1308  -5.1159  -5.0620  -5.0535  -5.0413
    -4.3274  -4.0993  -3.8041  -3.7504  -3.5596  -3.5152  -3.1908  -2.9378
    -0.7259  -0.6794  -0.6358  -0.5716  -0.5238  -0.4750  -0.4508  -0.3666
    -0.1149  -0.1044   0.0002   0.0720   0.3873   0.4309   0.5213   0.5499
     0.5842   0.5971   0.6305   0.6814   0.6969   0.7295   0.7663   0.8322
     0.8867   0.9025   0.9899   1.0606   1.0789   1.1271   1.1471   1.1703
     1.2157   1.2533   1.2816   1.2888   1.3420   1.3788   1.3859   1.4092
     1.4379   1.4593   1.4703   1.5150   1.5438   1.5469   1.5865   1.6012
     1.6158   1.6482   1.6646   1.6717   1.7005   1.7119   1.7308   1.7794
     1.7977   1.8216   1.8582   1.8955   1.9302   1.9631   2.0295   2.0489
     2.1100   2.1408   2.2436   2.2806   2.4227   2.4696   2.7888   2.9226

          k =-0.1250 0.1250-0.3750 (132608 PWs)   bands (ev):

   -18.5146 -18.4662 -18.4429 -18.4370 -18.4257 -18.3980 -18.3655 -18.3215
   -18.3108 -18.3096 -18.2975 -18.2959 -18.2939 -18.2868 -18.2862 -18.2808
   -18.2781 -18.2775 -18.2103 -18.1989 -18.1967 -18.1885 -18.1803 -18.1793
   -18.1774 -18.1730 -18.1724 -18.1692 -18.1688 -18.1671 -18.1665 -18.1599
   -18.1582 -18.1582 -18.1580 -18.1568 -18.1544 -18.1541 -18.1499 -18.1490
   -18.1471 -18.1437 -18.1373 -18.1366 -18.1267 -18.1219 -18.1132 -18.1091
    -9.4110  -9.3180  -9.2753  -9.1599  -9.1347  -9.0732  -9.0419  -9.0161
    -8.9861  -8.9517  -8.9143  -8.8810  -8.8446  -8.8266  -8.8176  -8.7751
    -8.7616  -8.7233  -8.7119  -8.6951  -8.6672  -8.6540  -8.5992  -8.5688
    -5.2807  -5.2667  -5.2609  -5.2357  -5.2262  -5.2242  -5.2118  -5.2078
    -5.2042  -5.2003  -5.1948  -5.1889  -5.1864  -5.1806  -5.1753  -5.1651
    -5.1622  -5.1546  -5.1389  -5.1307  -5.1158  -5.0620  -5.0536  -5.0412
    -4.3282  -4.0976  -3.8024  -3.7554  -3.5502  -3.5223  -3.1912  -2.9374
    -0.7293  -0.6749  -0.6299  -0.5746  -0.5327  -0.4717  -0.4365  -0.3796
    -0.1243  -0.1048   0.0071   0.0697   0.3930   0.4487   0.5106   0.5537
     0.5768   0.5951   0.6308   0.6793   0.6919   0.7286   0.7678   0.8462
     0.8962   0.9178   0.9858   1.0413   1.0741   1.1072   1.1409   1.1546
     1.2254   1.2679   1.2840   1.3148   1.3391   1.3625   1.3908   1.4168
     1.4342   1.4490   1.4783   1.5022   1.5415   1.5595   1.5855   1.6016
     1.6137   1.6392   1.6546   1.6679   1.7013   1.7217   1.7321   1.7767
     1.8007   1.8185   1.8551   1.9033   1.9398   1.9591   2.0322   2.0520
     2.1183   2.1505   2.2351   2.2729   2.4336   2.4547   2.7840   2.9292

          k = 0.1250-0.1250-0.3750 (132608 PWs)   bands (ev):

   -18.5146 -18.4662 -18.4429 -18.4370 -18.4257 -18.3980 -18.3655 -18.3215
   -18.3108 -18.3096 -18.2975 -18.2959 -18.2939 -18.2868 -18.2862 -18.2808
   -18.2781 -18.2775 -18.2103 -18.1989 -18.1967 -18.1885 -18.1803 -18.1793
   -18.1774 -18.1730 -18.1724 -18.1692 -18.1688 -18.1671 -18.1665 -18.1599
   -18.1582 -18.1582 -18.1580 -18.1568 -18.1544 -18.1541 -18.1499 -18.1490
   -18.1471 -18.1437 -18.1373 -18.1366 -18.1267 -18.1219 -18.1132 -18.1091
    -9.4113  -9.3174  -9.2752  -9.1593  -9.1340  -9.0781  -9.0439  -9.0102
    -8.9853  -8.9538  -8.9115  -8.8836  -8.8457  -8.8238  -8.8180  -8.7772
    -8.7580  -8.7237  -8.7149  -8.6955  -8.6660  -8.6544  -8.5985  -8.5689
    -5.2808  -5.2669  -5.2606  -5.2355  -5.2260  -5.2244  -5.2119  -5.2075
    -5.2043  -5.2004  -5.1951  -5.1890  -5.1863  -5.1808  -5.1752  -5.1653
    -5.1621  -5.1544  -5.1389  -5.1306  -5.1159  -5.0620  -5.0536  -5.0413
    -4.3282  -4.0975  -3.8037  -3.7537  -3.5527  -3.5198  -3.1915  -2.9376
    -0.7264  -0.6818  -0.6188  -0.5838  -0.5284  -0.4716  -0.4516  -0.3600
    -0.1184  -0.1065  -0.0086   0.0677   0.3940   0.4396   0.5204   0.5364
     0.5864   0.6043   0.6354   0.6709   0.7101   0.7372   0.7699   0.8353
     0.8782   0.9237   0.9905   1.0490   1.0700   1.1089   1.1436   1.1682
     1.2116   1.2636   1.2872   1.3045   1.3196   1.3526   1.3909   1.4116
     1.4406   1.4645   1.4781   1.5222   1.5329   1.5660   1.5879   1.6058
     1.6151   1.6390   1.6483   1.6745   1.6958   1.7203   1.7245   1.7667
     1.7926   1.8184   1.8649   1.8978   1.9404   1.9731   2.0371   2.0552
     2.1305   2.1357   2.2367   2.2850   2.4199   2.4536   2.7853   2.9193

          k = 0.3750-0.1250 0.1250 (132608 PWs)   bands (ev):

   -18.5146 -18.4663 -18.4429 -18.4370 -18.4257 -18.3980 -18.3655 -18.3214
   -18.3108 -18.3096 -18.2975 -18.2959 -18.2939 -18.2868 -18.2862 -18.2808
   -18.2781 -18.2775 -18.2103 -18.1989 -18.1967 -18.1885 -18.1803 -18.1793
   -18.1774 -18.1731 -18.1724 -18.1691 -18.1689 -18.1671 -18.1666 -18.1599
   -18.1582 -18.1582 -18.1580 -18.1568 -18.1544 -18.1541 -18.1499 -18.1490
   -18.1471 -18.1437 -18.1373 -18.1366 -18.1267 -18.1219 -18.1132 -18.1091
    -9.4098  -9.3237  -9.2675  -9.1713  -9.1387  -9.0653  -9.0426  -9.0084
    -8.9798  -8.9533  -8.9052  -8.8803  -8.8507  -8.8288  -8.8192  -8.7824
    -8.7696  -8.7396  -8.7025  -8.6887  -8.6692  -8.6346  -8.6094  -8.5678
    -5.2807  -5.2666  -5.2608  -5.2357  -5.2264  -5.2242  -5.2110  -5.2064
    -5.2050  -5.2017  -5.1940  -5.1896  -5.1870  -5.1808  -5.1758  -5.1647
    -5.1617  -5.1542  -5.1394  -5.1307  -5.1158  -5.0618  -5.0533  -5.0414
    -4.3221  -4.1008  -3.7903  -3.7658  -3.5548  -3.5288  -3.1890  -2.9374
    -0.6965  -0.6615  -0.6286  -0.5963  -0.5377  -0.4808  -0.3924  -0.3830
    -0.1581  -0.1388  -0.0069   0.1116   0.3872   0.4540   0.5098   0.5351
     0.5657   0.5872   0.6446   0.6677   0.7084   0.7177   0.7918   0.8288
     0.8751   0.9158   0.9818   1.0667   1.0884   1.1169   1.1415   1.1807
     1.2302   1.2531   1.2848   1.3092   1.3564   1.3803   1.3934   1.4175
     1.4463   1.4669   1.4981   1.5089   1.5190   1.5528   1.5711   1.5992
     1.6078   1.6262   1.6434   1.6737   1.6887   1.7207   1.7370   1.7503
     1.7752   1.8219   1.8490   1.9140   1.9441   1.9641   2.0030   2.0807
     2.1081   2.1499   2.2028   2.3285   2.3791   2.5016   2.7791   2.8949

          k =-0.3750-0.1250-0.1250 (132608 PWs)   bands (ev):

   -18.5146 -18.4663 -18.4429 -18.4370 -18.4257 -18.3980 -18.3655 -18.3214
   -18.3108 -18.3096 -18.2975 -18.2959 -18.2939 -18.2868 -18.2862 -18.2808
   -18.2781 -18.2775 -18.2103 -18.1989 -18.1967 -18.1885 -18.1803 -18.1793
   -18.1774 -18.1731 -18.1724 -18.1691 -18.1689 -18.1671 -18.1666 -18.1599
   -18.1582 -18.1582 -18.1580 -18.1568 -18.1544 -18.1541 -18.1499 -18.1490
   -18.1471 -18.1437 -18.1373 -18.1366 -18.1267 -18.1219 -18.1132 -18.1091
    -9.4098  -9.3256  -9.2640  -9.1715  -9.1328  -9.0871  -9.0340  -8.9989
    -8.9812  -8.9550  -8.9053  -8.8789  -8.8477  -8.8315  -8.8199  -8.7846
    -8.7716  -8.7363  -8.7031  -8.6871  -8.6711  -8.6341  -8.6098  -8.5673
    -5.2806  -5.2667  -5.2608  -5.2358  -5.2260  -5.2243  -5.2108  -5.2074
    -5.2048  -5.2014  -5.1936  -5.1895  -5.1874  -5.1808  -5.1758  -5.1650
    -5.1615  -5.1542  -5.1392  -5.1306  -5.1161  -5.0619  -5.0532  -5.0414
    -4.3228  -4.1011  -3.7906  -3.7600  -3.5590  -3.5298  -3.1872  -2.9390
    -0.6965  -0.6414  -0.6288  -0.5902  -0.5453  -0.4893  -0.3984  -0.3814
    -0.1728  -0.1370  -0.0058   0.1018   0.3886   0.4601   0.5013   0.5448
     0.5683   0.6132   0.6399   0.6674   0.6902   0.7304   0.7662   0.8290
     0.8831   0.9410   0.9938   1.0512   1.0858   1.1183   1.1366   1.1854
     1.2052   1.2661   1.2928   1.3152   1.3412   1.3766   1.3906   1.4168
     1.4320   1.4588   1.4745   1.5216   1.5454   1.5648   1.5801   1.6106
     1.6218   1.6274   1.6447   1.6585   1.6822   1.7102   1.7323   1.7499
     1.7742   1.8162   1.8470   1.9060   1.9526   1.9683   2.0115   2.0932
     2.1025   2.1483   2.2143   2.3132   2.3916   2.5058   2.7657   2.8727

          k = 0.3750 0.1250-0.1250 (132608 PWs)   bands (ev):

   -18.5146 -18.4663 -18.4429 -18.4370 -18.4257 -18.3980 -18.3655 -18.3214
   -18.3108 -18.3096 -18.2975 -18.2959 -18.2939 -18.2868 -18.2862 -18.2808
   -18.2781 -18.2775 -18.2103 -18.1989 -18.1967 -18.1885 -18.1803 -18.1793
   -18.1774 -18.1731 -18.1724 -18.1691 -18.1689 -18.1671 -18.1666 -18.1599
   -18.1582 -18.1582 -18.1580 -18.1568 -18.1544 -18.1541 -18.1499 -18.1490
   -18.1471 -18.1437 -18.1373 -18.1366 -18.1267 -18.1219 -18.1132 -18.1091
    -9.4090  -9.3270  -9.2648  -9.1713  -9.1339  -9.0774  -9.0382  -9.0099
    -8.9745  -8.9529  -8.9031  -8.8832  -8.8482  -8.8304  -8.8229  -8.7829
    -8.7692  -8.7355  -8.7053  -8.6861  -8.6714  -8.6350  -8.6085  -8.5679
    -5.2807  -5.2668  -5.2605  -5.2355  -5.2264  -5.2244  -5.2103  -5.2073
    -5.2050  -5.2012  -5.1940  -5.1895  -5.1873  -5.1807  -5.1758  -5.1651
    -5.1616  -5.1540  -5.1392  -5.1308  -5.1159  -5.0618  -5.0532  -5.0415
    -4.3215  -4.1019  -3.7941  -3.7596  -3.5603  -3.5260  -3.1867  -2.9388
    -0.7065  -0.6569  -0.6300  -0.5848  -0.5216  -0.5067  -0.3943  -0.3742
    -0.1642  -0.1312   0.0031   0.0951   0.3744   0.4617   0.5073   0.5376
     0.5767   0.6129   0.6455   0.6575   0.6861   0.7209   0.7698   0.8234
     0.8833   0.9351   0.9978   1.0431   1.0920   1.1147   1.1490   1.2029
     1.2328   1.2578   1.2856   1.3100   1.3198   1.3640   1.3874   1.4101
     1.4339   1.4761   1.4950   1.5143   1.5286   1.5636   1.5806   1.6087
     1.6302   1.6372   1.6462   1.6694   1.6888   1.7072   1.7234   1.7521
     1.7721   1.8222   1.8445   1.9033   1.9379   1.9715   2.0149   2.0758
     2.0957   2.1609   2.2095   2.3044   2.3839   2.5193   2.7820   2.8847

          k =-0.3750 0.1250 0.1250 (132608 PWs)   bands (ev):

   -18.5146 -18.4663 -18.4429 -18.4370 -18.4257 -18.3980 -18.3655 -18.3214
   -18.3108 -18.3096 -18.2975 -18.2959 -18.2939 -18.2868 -18.2862 -18.2808
   -18.2781 -18.2775 -18.2103 -18.1989 -18.1967 -18.1885 -18.1803 -18.1793
   -18.1774 -18.1731 -18.1724 -18.1691 -18.1689 -18.1671 -18.1666 -18.1599
   -18.1582 -18.1582 -18.1580 -18.1568 -18.1544 -18.1541 -18.1499 -18.1490
   -18.1471 -18.1437 -18.1373 -18.1366 -18.1267 -18.1219 -18.1132 -18.1091
    -9.4098  -9.3249  -9.2650  -9.1714  -9.1359  -9.0798  -9.0392  -8.9974
    -8.9794  -8.9570  -8.9019  -8.8842  -8.8504  -8.8292  -8.8178  -8.7851
    -8.7684  -8.7394  -8.7039  -8.6855  -8.6706  -8.6362  -8.6079  -8.5679
    -5.2807  -5.2668  -5.2605  -5.2355  -5.2260  -5.2246  -5.2109  -5.2061
    -5.2050  -5.2018  -5.1943  -5.1896  -5.1868  -5.1810  -5.1758  -5.1649
    -5.1617  -5.1541  -5.1394  -5.1306  -5.1160  -5.0618  -5.0533  -5.0414
    -4.3215  -4.1026  -3.7901  -3.7629  -3.5538  -3.5318  -3.1887  -2.9376
    -0.6969  -0.6614  -0.6113  -0.5878  -0.5472  -0.4990  -0.4075  -0.3807
    -0.1569  -0.1207   0.0016   0.1031   0.3741   0.4573   0.5091   0.5395
     0.5651   0.6068   0.6303   0.6625   0.7007   0.7157   0.7895   0.8356
     0.8689   0.9377   0.9983   1.0590   1.0901   1.1113   1.1306   1.1798
     1.2270   1.2602   1.2930   1.3130   1.3404   1.3634   1.3974   1.4128
     1.4406   1.4728   1.4878   1.5162   1.5263   1.5508   1.5807   1.5951
     1.6149   1.6239   1.6501   1.6692   1.6940   1.6993   1.7331   1.7559
     1.7821   1.8294   1.8498   1.9102   1.9402   1.9672   2.0080   2.0905
     2.1047   2.1484   2.2187   2.3100   2.3895   2.5094   2.7613   2.8814

          k =-0.1250 0.3750 0.1250 (132608 PWs)   bands (ev):

   -18.5146 -18.4663 -18.4429 -18.4370 -18.4257 -18.3980 -18.3655 -18.3215
   -18.3108 -18.3096 -18.2975 -18.2959 -18.2939 -18.2868 -18.2862 -18.2808
   -18.2781 -18.2775 -18.2103 -18.1989 -18.1967 -18.1885 -18.1803 -18.1793
   -18.1774 -18.1730 -18.1724 -18.1693 -18.1688 -18.1671 -18.1666 -18.1599
   -18.1582 -18.1582 -18.1580 -18.1568 -18.1544 -18.1541 -18.1499 -18.1490
   -18.1471 -18.1437 -18.1373 -18.1366 -18.1267 -18.1219 -18.1132 -18.1091
    -9.4200  -9.2963  -9.2745  -9.1900  -9.1096  -9.0759  -9.0536  -9.0229
    -8.9725  -8.9578  -8.9057  -8.9002  -8.8292  -8.8065  -8.7952  -8.7824
    -8.7702  -8.7426  -8.7245  -8.6862  -8.6761  -8.6599  -8.6035  -8.5530
    -5.2809  -5.2668  -5.2609  -5.2352  -5.2254  -5.2243  -5.2109  -5.2063
    -5.2049  -5.2026  -5.1943  -5.1894  -5.1876  -5.1806  -5.1756  -5.1645
    -5.1618  -5.1542  -5.1391  -5.1306  -5.1158  -5.0619  -5.0534  -5.0416
    -4.3322  -4.0804  -3.8112  -3.7791  -3.5249  -3.5111  -3.2192  -2.9271
    -0.7680  -0.6848  -0.5854  -0.5481  -0.5380  -0.5041  -0.4107  -0.3358
    -0.1372  -0.1130  -0.0299   0.0246   0.4291   0.4770   0.5042   0.5477
     0.5802   0.5990   0.6330   0.6714   0.7071   0.7339   0.7670   0.7886
     0.8603   0.9036   0.9657   1.0605   1.1251   1.1326   1.1566   1.2179
     1.2208   1.2561   1.2761   1.3122   1.3289   1.3645   1.3895   1.4232
     1.4431   1.4736   1.4910   1.5010   1.5486   1.5548   1.5731   1.5928
     1.6226   1.6470   1.6684   1.6890   1.7029   1.7059   1.7273   1.7817
     1.7911   1.8264   1.8301   1.9053   1.9486   1.9626   1.9781   2.0231
     2.0395   2.1687   2.2703   2.2830   2.4373   2.4826   2.7665   2.8951

          k =-0.1250-0.3750-0.1250 (132608 PWs)   bands (ev):

   -18.5146 -18.4663 -18.4429 -18.4370 -18.4257 -18.3980 -18.3655 -18.3215
   -18.3108 -18.3096 -18.2975 -18.2959 -18.2939 -18.2868 -18.2862 -18.2808
   -18.2781 -18.2775 -18.2103 -18.1989 -18.1967 -18.1885 -18.1803 -18.1793
   -18.1774 -18.1730 -18.1724 -18.1693 -18.1688 -18.1671 -18.1666 -18.1599
   -18.1582 -18.1582 -18.1580 -18.1568 -18.1544 -18.1541 -18.1499 -18.1490
   -18.1471 -18.1437 -18.1373 -18.1366 -18.1267 -18.1219 -18.1132 -18.1091
    -9.4200  -9.2992  -9.2712  -9.1893  -9.1044  -9.0894  -9.0426  -9.0279
    -8.9791  -8.9478  -8.9123  -8.8938  -8.8262  -8.8131  -8.7973  -8.7818
    -8.7710  -8.7384  -8.7235  -8.6856  -8.6782  -8.6603  -8.6034  -8.5528
    -5.2808  -5.2668  -5.2612  -5.2354  -5.2254  -5.2240  -5.2106  -5.2076
    -5.2049  -5.2021  -5.1937  -5.1891  -5.1882  -5.1804  -5.1757  -5.1646
    -5.1616  -5.1544  -5.1389  -5.1307  -5.1159  -5.0620  -5.0533  -5.0416
    -4.3329  -4.0804  -3.8054  -3.7820  -3.5270  -3.5120  -3.2175  -2.9285
    -0.7414  -0.7027  -0.5822  -0.5476  -0.5396  -0.5140  -0.4161  -0.3298
    -0.1387  -0.1118  -0.0274   0.0100   0.4339   0.4685   0.5028   0.5696
     0.5820   0.6042   0.6466   0.6700   0.6935   0.7252   0.7648   0.7804
     0.8630   0.9191   0.9658   1.0546   1.1145   1.1381   1.1703   1.1954
     1.2329   1.2580   1.2704   1.2981   1.3350   1.3594   1.3872   1.4127
     1.4542   1.4769   1.4931   1.5197   1.5376   1.5708   1.5771   1.6001
     1.6301   1.6409   1.6621   1.6847   1.6884   1.7117   1.7371   1.7555
     1.7944   1.8035   1.8536   1.9038   1.9441   1.9643   1.9902   2.0258
     2.0401   2.1906   2.2261   2.3239   2.4135   2.4910   2.7566   2.8894

          k = 0.1250 0.3750-0.1250 (132608 PWs)   bands (ev):

   -18.5146 -18.4663 -18.4429 -18.4370 -18.4257 -18.3980 -18.3655 -18.3215
   -18.3108 -18.3096 -18.2975 -18.2959 -18.2939 -18.2868 -18.2862 -18.2808
   -18.2781 -18.2775 -18.2103 -18.1989 -18.1967 -18.1885 -18.1803 -18.1793
   -18.1774 -18.1730 -18.1724 -18.1693 -18.1688 -18.1671 -18.1666 -18.1599
   -18.1582 -18.1582 -18.1580 -18.1568 -18.1544 -18.1541 -18.1499 -18.1490
   -18.1471 -18.1437 -18.1373 -18.1366 -18.1267 -18.1219 -18.1132 -18.1091
    -9.4193  -9.3027  -9.2695  -9.1884  -9.1058  -9.0799  -9.0555  -9.0264
    -8.9648  -8.9577  -8.9068  -8.9018  -8.8264  -8.8120  -8.7990  -8.7802
    -8.7706  -8.7365  -8.7249  -8.6855  -8.6786  -8.6598  -8.6034  -8.5530
    -5.2808  -5.2668  -5.2610  -5.2352  -5.2258  -5.2241  -5.2102  -5.2076
    -5.2049  -5.2018  -5.1940  -5.1891  -5.1883  -5.1803  -5.1757  -5.1647
    -5.1618  -5.1542  -5.1389  -5.1309  -5.1158  -5.0619  -5.0533  -5.0416
    -4.3317  -4.0817  -3.8104  -3.7784  -3.5256  -3.5128  -3.2165  -2.9282
    -0.7697  -0.6809  -0.5857  -0.5542  -0.5323  -0.5045  -0.4228  -0.3335
    -0.1345  -0.0975  -0.0268   0.0207   0.4274   0.4717   0.4990   0.5506
     0.5803   0.6033   0.6395   0.6655   0.6917   0.7234   0.7584   0.7790
     0.8721   0.9223   0.9716   1.0554   1.1333   1.1394   1.1688   1.2128
     1.2347   1.2585   1.2929   1.3092   1.3245   1.3491   1.3806   1.3975
     1.4171   1.4718   1.4793   1.5145   1.5549   1.5744   1.5820   1.6010
     1.6384   1.6549   1.6601   1.6826   1.7033   1.7144   1.7352   1.7657
     1.7914   1.8087   1.8500   1.9020   1.9324   1.9638   1.9826   2.0129
     2.0335   2.1686   2.2343   2.3201   2.4382   2.4977   2.7598   2.8994

          k = 0.1250-0.3750 0.1250 (132608 PWs)   bands (ev):

   -18.5146 -18.4663 -18.4429 -18.4370 -18.4257 -18.3980 -18.3655 -18.3215
   -18.3108 -18.3096 -18.2975 -18.2959 -18.2939 -18.2868 -18.2862 -18.2808
   -18.2781 -18.2775 -18.2103 -18.1989 -18.1967 -18.1885 -18.1803 -18.1793
   -18.1774 -18.1730 -18.1724 -18.1693 -18.1688 -18.1671 -18.1666 -18.1599
   -18.1582 -18.1582 -18.1580 -18.1568 -18.1544 -18.1541 -18.1499 -18.1490
   -18.1471 -18.1437 -18.1373 -18.1366 -18.1267 -18.1219 -18.1132 -18.1091
    -9.4197  -9.2978  -9.2735  -9.1903  -9.1095  -9.0756  -9.0462  -9.0286
    -8.9827  -8.9461  -8.9117  -8.8967  -8.8269  -8.8113  -8.7964  -8.7832
    -8.7666  -8.7458  -8.7183  -8.6889  -8.6753  -8.6598  -8.6042  -8.5529
    -5.2809  -5.2666  -5.2612  -5.2353  -5.2258  -5.2239  -5.2108  -5.2066
    -5.2049  -5.2026  -5.1940  -5.1894  -5.1876  -5.1804  -5.1757  -5.1643
    -5.1619  -5.1544  -5.1391  -5.1308  -5.1157  -5.0620  -5.0534  -5.0416
    -4.3318  -4.0819  -3.8058  -3.7832  -3.5255  -3.5113  -3.2189  -2.9270
    -0.7412  -0.7104  -0.5752  -0.5584  -0.5422  -0.5115  -0.4144  -0.3395
    -0.1350  -0.0969  -0.0264   0.0369   0.4282   0.4747   0.5023   0.5423
     0.5597   0.6084   0.6303   0.6779   0.6942   0.7448   0.7539   0.7895
     0.8637   0.9127   0.9687   1.0449   1.1236   1.1379   1.1750   1.2002
     1.2234   1.2642   1.2809   1.3134   1.3316   1.3696   1.3876   1.4123
     1.4372   1.4631   1.5060   1.5182   1.5393   1.5624   1.5748   1.5892
     1.6169   1.6460   1.6587   1.6738   1.7006   1.7112   1.7454   1.7660
     1.7921   1.8274   1.8501   1.9019   1.9464   1.9562   1.9897   2.0073
     2.0369   2.1997   2.2422   2.2853   2.4310   2.5019   2.7464   2.9086

          k =-0.1250-0.3750 0.3750 (132616 PWs)   bands (ev):

   -18.5146 -18.4662 -18.4429 -18.4370 -18.4257 -18.3980 -18.3655 -18.3215
   -18.3108 -18.3096 -18.2975 -18.2959 -18.2939 -18.2868 -18.2862 -18.2808
   -18.2781 -18.2775 -18.2103 -18.1989 -18.1967 -18.1885 -18.1803 -18.1793
   -18.1774 -18.1730 -18.1724 -18.1693 -18.1688 -18.1671 -18.1666 -18.1599
   -18.1582 -18.1582 -18.1580 -18.1568 -18.1544 -18.1541 -18.1499 -18.1490
   -18.1471 -18.1437 -18.1373 -18.1366 -18.1267 -18.1219 -18.1132 -18.1091
    -9.3998  -9.3128  -9.2797  -9.1660  -9.1246  -9.1026  -9.0631  -9.0228
    -8.9807  -8.9529  -8.9179  -8.8772  -8.8242  -8.8126  -8.7977  -8.7650
    -8.7541  -8.7314  -8.7137  -8.6945  -8.6740  -8.6653  -8.6057  -8.5700
    -5.2806  -5.2667  -5.2606  -5.2355  -5.2265  -5.2244  -5.2102  -5.2072
    -5.2048  -5.2020  -5.1940  -5.1889  -5.1880  -5.1802  -5.1754  -5.1651
    -5.1617  -5.1542  -5.1391  -5.1307  -5.1158  -5.0620  -5.0535  -5.0415
    -4.2034  -3.9858  -3.9474  -3.7124  -3.6413  -3.4220  -3.3755  -3.1450
    -0.7078  -0.6536  -0.5174  -0.4389  -0.3118  -0.2596  -0.1987  -0.1199
    -0.0526   0.0024   0.0866   0.1346   0.3313   0.3883   0.4574   0.5041
     0.5276   0.5549   0.5790   0.6084   0.6353   0.6766   0.7088   0.7312
     0.8196   0.8598   0.9379   0.9939   1.0148   1.0368   1.0804   1.1038
     1.1426   1.1710   1.2190   1.2664   1.2975   1.3180   1.3391   1.3683
     1.4275   1.4732   1.5037   1.5345   1.5569   1.6010   1.6122   1.6290
     1.6568   1.6793   1.6881   1.7176   1.7278   1.7640   1.7748   1.8160
     1.8282   1.8484   1.8641   1.8875   1.9005   1.9502   1.9718   1.9808
     2.0162   2.0274   2.0899   2.2002   2.3089   2.4161   2.5075   2.6126

          k =-0.1250 0.3750-0.3750 (132616 PWs)   bands (ev):

   -18.5146 -18.4662 -18.4429 -18.4370 -18.4257 -18.3980 -18.3655 -18.3215
   -18.3108 -18.3096 -18.2975 -18.2959 -18.2939 -18.2868 -18.2862 -18.2808
   -18.2781 -18.2775 -18.2103 -18.1989 -18.1967 -18.1885 -18.1803 -18.1793
   -18.1774 -18.1730 -18.1724 -18.1693 -18.1688 -18.1671 -18.1666 -18.1599
   -18.1582 -18.1582 -18.1580 -18.1568 -18.1544 -18.1541 -18.1499 -18.1490
   -18.1471 -18.1437 -18.1373 -18.1366 -18.1267 -18.1219 -18.1132 -18.1091
    -9.4005  -9.3100  -9.2806  -9.1703  -9.1284  -9.0992  -9.0427  -9.0366
    -8.9894  -8.9478  -8.9184  -8.8765  -8.8247  -8.8113  -8.7959  -8.7680
    -8.7540  -8.7322  -8.7145  -8.6896  -8.6766  -8.6649  -8.6065  -8.5697
    -5.2806  -5.2665  -5.2608  -5.2357  -5.2263  -5.2243  -5.2108  -5.2063
    -5.2048  -5.2028  -5.1940  -5.1891  -5.1873  -5.1803  -5.1753  -5.1647
    -5.1618  -5.1544  -5.1394  -5.1306  -5.1157  -5.0620  -5.0536  -5.0414
    -4.2041  -3.9828  -3.9485  -3.7180  -3.6354  -3.4231  -3.3765  -3.1443
    -0.6994  -0.6571  -0.5099  -0.4452  -0.3341  -0.2632  -0.1913  -0.1141
    -0.0592  -0.0042   0.0982   0.1442   0.3410   0.4126   0.4572   0.4881
     0.5239   0.5513   0.5758   0.6102   0.6256   0.6809   0.6968   0.7335
     0.8440   0.8710   0.9416   0.9789   0.9911   1.0243   1.0731   1.1025
     1.1250   1.1811   1.2227   1.2596   1.3090   1.3210   1.3738   1.3776
     1.4328   1.4595   1.5125   1.5342   1.5505   1.5798   1.6059   1.6148
     1.6482   1.6653   1.6945   1.7290   1.7399   1.7607   1.7777   1.8164
     1.8321   1.8458   1.8728   1.8832   1.9108   1.9505   1.9723   1.9817
     2.0142   2.0385   2.1102   2.1971   2.2963   2.3980   2.5002   2.6236

          k = 0.1250-0.3750-0.3750 (132616 PWs)   bands (ev):

   -18.5146 -18.4662 -18.4429 -18.4370 -18.4257 -18.3980 -18.3655 -18.3215
   -18.3108 -18.3096 -18.2975 -18.2959 -18.2939 -18.2868 -18.2862 -18.2808
   -18.2781 -18.2775 -18.2103 -18.1989 -18.1967 -18.1885 -18.1803 -18.1793
   -18.1774 -18.1730 -18.1724 -18.1693 -18.1688 -18.1671 -18.1666 -18.1599
   -18.1582 -18.1582 -18.1580 -18.1568 -18.1544 -18.1541 -18.1499 -18.1490
   -18.1471 -18.1437 -18.1373 -18.1366 -18.1267 -18.1219 -18.1132 -18.1091
    -9.4010  -9.3077  -9.2820  -9.1709  -9.1265  -9.0987  -9.0564  -9.0259
    -8.9864  -8.9495  -8.9190  -8.8761  -8.8285  -8.8054  -8.7961  -8.7675
    -8.7537  -8.7351  -8.7136  -8.6933  -8.6749  -8.6644  -8.6057  -8.5698
    -5.2807  -5.2667  -5.2606  -5.2355  -5.2261  -5.2245  -5.2109  -5.2060
    -5.2047  -5.2028  -5.1942  -5.1891  -5.1874  -5.1804  -5.1753  -5.1649
    -5.1617  -5.1543  -5.1393  -5.1305  -5.1158  -5.0620  -5.0536  -5.0415
    -4.2054  -3.9777  -3.9482  -3.7352  -3.6202  -3.4158  -3.3868  -3.1436
    -0.7063  -0.6556  -0.5103  -0.4564  -0.3033  -0.2334  -0.1677  -0.1515
    -0.0531  -0.0050   0.0572   0.0894   0.3541   0.4258   0.4796   0.5164
     0.5407   0.5511   0.5772   0.6129   0.6235   0.6634   0.6974   0.7445
     0.8191   0.8638   0.9499   0.9880   0.9997   1.0331   1.0558   1.0772
     1.1356   1.1892   1.2227   1.2508   1.3056   1.3292   1.3551   1.3907
     1.4233   1.4641   1.4907   1.5327   1.5544   1.5945   1.6062   1.6356
     1.6521   1.6757   1.6918   1.7107   1.7428   1.7660   1.7864   1.7970
     1.8266   1.8347   1.8717   1.8806   1.9355   1.9435   1.9728   1.9958
     2.0079   2.0696   2.0896   2.1637   2.2981   2.4141   2.5215   2.6007

          k = 0.3750 0.1250-0.3750 (132616 PWs)   bands (ev):

   -18.5146 -18.4662 -18.4429 -18.4370 -18.4257 -18.3980 -18.3655 -18.3214
   -18.3108 -18.3096 -18.2975 -18.2959 -18.2939 -18.2868 -18.2862 -18.2808
   -18.2781 -18.2775 -18.2103 -18.1989 -18.1967 -18.1885 -18.1803 -18.1793
   -18.1774 -18.1731 -18.1724 -18.1691 -18.1689 -18.1671 -18.1666 -18.1599
   -18.1582 -18.1582 -18.1580 -18.1568 -18.1544 -18.1541 -18.1499 -18.1490
   -18.1471 -18.1437 -18.1373 -18.1366 -18.1267 -18.1219 -18.1132 -18.1091
    -9.3904  -9.3160  -9.2906  -9.1800  -9.1466  -9.0626  -9.0438  -9.0152
    -8.9831  -8.9502  -8.9240  -8.8774  -8.8494  -8.8314  -8.8196  -8.7551
    -8.7369  -8.7252  -8.7049  -8.6912  -8.6716  -8.6490  -8.6111  -8.5830
    -5.2806  -5.2669  -5.2607  -5.2351  -5.2263  -5.2240  -5.2105  -5.2071
    -5.2049  -5.2011  -5.1944  -5.1899  -5.1872  -5.1809  -5.1755  -5.1652
    -5.1618  -5.1540  -5.1391  -5.1308  -5.1162  -5.0618  -5.0534  -5.0412
    -4.1920  -3.9879  -3.9534  -3.7403  -3.6258  -3.4032  -3.3798  -3.1542
    -0.6413  -0.6042  -0.5641  -0.5098  -0.3514  -0.2312  -0.1677  -0.1368
    -0.0155   0.0138   0.0591   0.1504   0.2787   0.3900   0.4436   0.4967
     0.5409   0.5823   0.6157   0.6203   0.6485   0.6750   0.7002   0.7490
     0.7952   0.8626   0.8922   0.9478   0.9835   1.0291   1.0952   1.1026
     1.1580   1.1817   1.2286   1.2737   1.3066   1.3415   1.3641   1.3927
     1.4137   1.4755   1.4904   1.5166   1.5644   1.5715   1.6162   1.6255
     1.6503   1.6808   1.6979   1.7029   1.7161   1.7479   1.7586   1.7733
     1.8100   1.8575   1.8743   1.8876   1.9196   1.9543   1.9764   2.0078
     2.0289   2.0467   2.1270   2.1807   2.2757   2.4698   2.4883   2.5964

          k =-0.3750-0.1250-0.3750 (132616 PWs)   bands (ev):

   -18.5146 -18.4662 -18.4429 -18.4370 -18.4257 -18.3980 -18.3655 -18.3214
   -18.3108 -18.3096 -18.2975 -18.2959 -18.2939 -18.2868 -18.2862 -18.2808
   -18.2781 -18.2775 -18.2103 -18.1989 -18.1967 -18.1885 -18.1803 -18.1793
   -18.1774 -18.1731 -18.1724 -18.1691 -18.1689 -18.1671 -18.1666 -18.1599
   -18.1582 -18.1582 -18.1580 -18.1568 -18.1544 -18.1541 -18.1499 -18.1490
   -18.1471 -18.1437 -18.1373 -18.1366 -18.1267 -18.1219 -18.1132 -18.1091
    -9.3919  -9.3105  -9.2935  -9.1808  -9.1451  -9.0728  -9.0421  -9.0056
    -8.9808  -8.9560  -8.9251  -8.8744  -8.8490  -8.8322  -8.8188  -8.7555
    -8.7391  -8.7266  -8.7031  -8.6896  -8.6730  -8.6476  -8.6131  -8.5819
    -5.2805  -5.2667  -5.2609  -5.2354  -5.2258  -5.2240  -5.2109  -5.2072
    -5.2047  -5.2013  -5.1940  -5.1899  -5.1872  -5.1810  -5.1754  -5.1650
    -5.1617  -5.1542  -5.1391  -5.1306  -5.1163  -5.0619  -5.0534  -5.0412
    -4.1956  -3.9741  -3.9615  -3.7413  -3.6251  -3.4001  -3.3857  -3.1536
    -0.6430  -0.5912  -0.5556  -0.5170  -0.3321  -0.2457  -0.1850  -0.1171
    -0.0482  -0.0195   0.0513   0.1626   0.3198   0.4049   0.4507   0.4921
     0.5297   0.5708   0.6008   0.6218   0.6651   0.6757   0.7156   0.7549
     0.7877   0.8706   0.9002   0.9583   0.9831   1.0194   1.0592   1.0802
     1.1645   1.1874   1.2595   1.2730   1.3099   1.3347   1.3636   1.3729
     1.4267   1.4584   1.5151   1.5372   1.5525   1.5704   1.5931   1.6290
     1.6423   1.6687   1.6892   1.6987   1.7271   1.7431   1.7518   1.7926
     1.8136   1.8524   1.8758   1.9001   1.9218   1.9590   1.9843   2.0027
     2.0412   2.0546   2.1210   2.1714   2.3089   2.4216   2.4944   2.5888

          k = 0.3750-0.1250 0.3750 (132616 PWs)   bands (ev):

   -18.5146 -18.4662 -18.4429 -18.4370 -18.4257 -18.3980 -18.3655 -18.3214
   -18.3108 -18.3096 -18.2975 -18.2959 -18.2939 -18.2868 -18.2862 -18.2808
   -18.2781 -18.2775 -18.2103 -18.1989 -18.1967 -18.1885 -18.1803 -18.1793
   -18.1774 -18.1731 -18.1724 -18.1691 -18.1689 -18.1671 -18.1666 -18.1599
   -18.1582 -18.1582 -18.1580 -18.1568 -18.1544 -18.1541 -18.1499 -18.1490
   -18.1471 -18.1437 -18.1373 -18.1366 -18.1267 -18.1219 -18.1132 -18.1091
    -9.3916  -9.3084  -9.2963  -9.1816  -9.1494  -9.0560  -9.0376  -9.0162
    -8.9951  -8.9447  -8.9293  -8.8732  -8.8504  -8.8309  -8.8185  -8.7545
    -8.7375  -8.7282  -8.7051  -8.6887  -8.6719  -8.6480  -8.6128  -8.5824
    -5.2806  -5.2667  -5.2609  -5.2353  -5.2261  -5.2239  -5.2111  -5.2064
    -5.2049  -5.2016  -5.1943  -5.1899  -5.1869  -5.1810  -5.1755  -5.1647
    -5.1620  -5.1542  -5.1394  -5.1307  -5.1161  -5.0618  -5.0535  -5.0412
    -4.1941  -3.9735  -3.9617  -3.7529  -3.6147  -3.3996  -3.3873  -3.1528
    -0.6447  -0.5976  -0.5659  -0.5133  -0.3303  -0.2438  -0.1821  -0.1080
    -0.0466  -0.0126   0.0529   0.1735   0.3231   0.4040   0.4450   0.4766
     0.5389   0.5629   0.5951   0.6202   0.6685   0.6740   0.7096   0.7403
     0.8073   0.8734   0.9071   0.9418   0.9843   1.0146   1.0536   1.0731
     1.1777   1.1918   1.2394   1.2914   1.3097   1.3420   1.3726   1.3930
     1.4331   1.4629   1.4798   1.5129   1.5405   1.5641   1.6125   1.6270
     1.6645   1.6767   1.6843   1.7074   1.7174   1.7438   1.7720   1.7881
     1.8136   1.8455   1.8797   1.8972   1.9137   1.9526   1.9792   2.0036
     2.0412   2.0505   2.1120   2.1696   2.3075   2.4292   2.5024   2.6028

          k =-0.3750 0.1250 0.3750 (132616 PWs)   bands (ev):

   -18.5146 -18.4662 -18.4429 -18.4370 -18.4257 -18.3980 -18.3655 -18.3214
   -18.3108 -18.3096 -18.2975 -18.2959 -18.2939 -18.2868 -18.2862 -18.2808
   -18.2781 -18.2775 -18.2103 -18.1989 -18.1967 -18.1885 -18.1803 -18.1793
   -18.1774 -18.1731 -18.1724 -18.1691 -18.1689 -18.1671 -18.1666 -18.1599
   -18.1582 -18.1582 -18.1580 -18.1568 -18.1544 -18.1541 -18.1499 -18.1490
   -18.1471 -18.1437 -18.1373 -18.1366 -18.1267 -18.1219 -18.1132 -18.1091
    -9.3917  -9.3127  -9.2911  -9.1808  -9.1482  -9.0700  -9.0391  -9.0000
    -8.9930  -8.9519  -8.9263  -8.8742  -8.8511  -8.8313  -8.8172  -8.7564
    -8.7368  -8.7277  -8.7057  -8.6870  -8.6719  -8.6506  -8.6110  -8.5827
    -5.2807  -5.2668  -5.2606  -5.2351  -5.2259  -5.2241  -5.2111  -5.2061
    -5.2049  -5.2017  -5.1947  -5.1900  -5.1867  -5.1812  -5.1754  -5.1650
    -5.1619  -5.1540  -5.1394  -5.1306  -5.1162  -5.0617  -5.0535  -5.0412
    -4.1927  -3.9878  -3.9527  -3.7397  -3.6251  -3.4052  -3.3803  -3.1534
    -0.6378  -0.5908  -0.5694  -0.5099  -0.3760  -0.2256  -0.1657  -0.1421
    -0.0230   0.0335   0.0570   0.1493   0.2895   0.3898   0.4424   0.4855
     0.5378   0.5768   0.6061   0.6318   0.6529   0.6680   0.7107   0.7553
     0.8026   0.8782   0.9067   0.9563   0.9748   1.0025   1.0649   1.1011
     1.1596   1.1803   1.2319   1.2828   1.3091   1.3340   1.3627   1.3963
     1.4332   1.4597   1.4990   1.5281   1.5539   1.5609   1.5849   1.6368
     1.6505   1.6738   1.6886   1.7027   1.7277   1.7361   1.7574   1.7825
     1.8101   1.8615   1.8877   1.9054   1.9171   1.9513   1.9870   2.0131
     2.0332   2.0541   2.1242   2.1738   2.2945   2.4462   2.4861   2.5831

          k = 0.3750-0.3750 0.1250 (132616 PWs)   bands (ev):

   -18.5146 -18.4663 -18.4429 -18.4370 -18.4257 -18.3980 -18.3655 -18.3214
   -18.3108 -18.3096 -18.2975 -18.2959 -18.2939 -18.2868 -18.2862 -18.2808
   -18.2781 -18.2775 -18.2103 -18.1989 -18.1967 -18.1885 -18.1803 -18.1793
   -18.1774 -18.1731 -18.1724 -18.1691 -18.1689 -18.1671 -18.1666 -18.1599
   -18.1582 -18.1582 -18.1580 -18.1568 -18.1544 -18.1541 -18.1499 -18.1490
   -18.1471 -18.1437 -18.1373 -18.1366 -18.1267 -18.1219 -18.1132 -18.1091
    -9.4011  -9.3120  -9.2688  -9.1941  -9.1385  -9.0735  -9.0472  -9.0244
    -8.9919  -8.9447  -8.9096  -8.8864  -8.8276  -8.8077  -8.7952  -8.7785
    -8.7661  -8.7389  -8.7066  -8.6914  -8.6769  -8.6433  -8.6136  -8.5705
    -5.2807  -5.2665  -5.2608  -5.2356  -5.2260  -5.2241  -5.2110  -5.2066
    -5.2049  -5.2022  -5.1932  -5.1899  -5.1870  -5.1805  -5.1758  -5.1649
    -5.1623  -5.1546  -5.1389  -5.1308  -5.1156  -5.0618  -5.0533  -5.0416
    -4.1983  -3.9998  -3.9187  -3.7233  -3.6562  -3.4334  -3.3678  -3.1395
    -0.6655  -0.6188  -0.5137  -0.4638  -0.3485  -0.2752  -0.1733  -0.1579
    -0.0795  -0.0109   0.0607   0.2048   0.3141   0.3883   0.4783   0.5152
     0.5280   0.5583   0.5895   0.6053   0.6439   0.6687   0.7049   0.7385
     0.8271   0.8642   0.9040   0.9982   1.0231   1.0573   1.0859   1.1103
     1.1188   1.1759   1.2296   1.2559   1.3052   1.3329   1.3630   1.3728
     1.4202   1.4473   1.4978   1.5345   1.5445   1.5754   1.6201   1.6405
     1.6598   1.6775   1.6919   1.7113   1.7182   1.7616   1.7758   1.8034
     1.8258   1.8516   1.8562   1.8805   1.9155   1.9476   1.9672   1.9846
     2.0124   2.0388   2.0688   2.2022   2.2994   2.4286   2.5090   2.6052

          k =-0.3750-0.3750-0.1250 (132616 PWs)   bands (ev):

   -18.5146 -18.4663 -18.4429 -18.4370 -18.4257 -18.3980 -18.3655 -18.3214
   -18.3108 -18.3096 -18.2975 -18.2959 -18.2939 -18.2868 -18.2862 -18.2808
   -18.2781 -18.2775 -18.2103 -18.1989 -18.1967 -18.1885 -18.1803 -18.1793
   -18.1774 -18.1731 -18.1724 -18.1691 -18.1689 -18.1671 -18.1666 -18.1599
   -18.1582 -18.1582 -18.1580 -18.1568 -18.1544 -18.1541 -18.1499 -18.1490
   -18.1471 -18.1437 -18.1373 -18.1366 -18.1267 -18.1219 -18.1132 -18.1091
    -9.4012  -9.3151  -9.2632  -9.1952  -9.1325  -9.0937  -9.0335  -9.0277
    -8.9877  -8.9457  -8.9090  -8.8859  -8.8279  -8.8029  -8.7987  -8.7820
    -8.7694  -8.7335  -8.7082  -8.6875  -8.6812  -8.6426  -8.6139  -8.5701
    -5.2806  -5.2666  -5.2608  -5.2357  -5.2256  -5.2242  -5.2108  -5.2077
    -5.2046  -5.2019  -5.1928  -5.1898  -5.1875  -5.1805  -5.1758  -5.1652
    -5.1620  -5.1546  -5.1387  -5.1307  -5.1158  -5.0618  -5.0532  -5.0416
    -4.1999  -4.0041  -3.9063  -3.7391  -3.6394  -3.4547  -3.3514  -3.1425
    -0.6661  -0.6128  -0.5039  -0.4609  -0.3551  -0.2489  -0.2005  -0.1550
    -0.0927  -0.0319   0.0731   0.1626   0.3293   0.4160   0.4654   0.5065
     0.5346   0.5880   0.5997   0.6317   0.6548   0.6674   0.6857   0.7028
     0.8234   0.8871   0.9158   0.9788   1.0152   1.0509   1.1008   1.1266
     1.1366   1.1617   1.2115   1.2461   1.2743   1.3379   1.3569   1.3704
     1.4300   1.4589   1.5030   1.5316   1.5542   1.6011   1.6095   1.6332
     1.6598   1.6683   1.6975   1.7103   1.7269   1.7510   1.7722   1.7999
     1.8124   1.8430   1.8638   1.8831   1.9279   1.9473   1.9695   1.9854
     2.0055   2.0400   2.0934   2.2005   2.3118   2.4297   2.4867   2.5904

          k = 0.3750 0.3750-0.1250 (132616 PWs)   bands (ev):

   -18.5146 -18.4663 -18.4429 -18.4370 -18.4257 -18.3980 -18.3655 -18.3214
   -18.3108 -18.3096 -18.2975 -18.2959 -18.2939 -18.2868 -18.2862 -18.2808
   -18.2781 -18.2775 -18.2103 -18.1989 -18.1967 -18.1885 -18.1803 -18.1793
   -18.1774 -18.1731 -18.1724 -18.1691 -18.1689 -18.1671 -18.1666 -18.1599
   -18.1582 -18.1582 -18.1580 -18.1568 -18.1544 -18.1541 -18.1499 -18.1490
   -18.1471 -18.1437 -18.1373 -18.1366 -18.1267 -18.1219 -18.1132 -18.1091
    -9.4002  -9.3167  -9.2643  -9.1944  -9.1349  -9.0784  -9.0544  -9.0191
    -8.9859  -8.9478  -8.9053  -8.8902  -8.8282  -8.8072  -8.7956  -8.7777
    -8.7699  -8.7320  -8.7107  -8.6901  -8.6786  -8.6431  -8.6127  -8.5707
    -5.2807  -5.2667  -5.2606  -5.2354  -5.2260  -5.2243  -5.2104  -5.2076
    -5.2046  -5.2017  -5.1930  -5.1898  -5.1877  -5.1804  -5.1758  -5.1653
    -5.1622  -5.1544  -5.1387  -5.1309  -5.1157  -5.0618  -5.0532  -5.0417
    -4.1977  -4.0051  -3.9070  -3.7481  -3.6319  -3.4534  -3.3513  -3.1425
    -0.6859  -0.6022  -0.5069  -0.4686  -0.3530  -0.2370  -0.1832  -0.1501
    -0.0897  -0.0335   0.0801   0.1602   0.3205   0.3908   0.4733   0.5029
     0.5383   0.5884   0.6084   0.6179   0.6327   0.6667   0.6962   0.7174
     0.8145   0.8762   0.9136   0.9911   1.0237   1.0583   1.0878   1.1347
     1.1546   1.1704   1.2159   1.2566   1.2699   1.3030   1.3542   1.3955
     1.4097   1.4636   1.4821   1.5280   1.5589   1.5844   1.6257   1.6406
     1.6698   1.6795   1.7042   1.7227   1.7342   1.7479   1.7768   1.7922
     1.8190   1.8325   1.8605   1.8770   1.9145   1.9406   1.9707   1.9763
     1.9962   2.0254   2.0925   2.2121   2.2996   2.4462   2.5009   2.6018

          k =-0.3750 0.3750 0.1250 (132616 PWs)   bands (ev):

   -18.5146 -18.4663 -18.4429 -18.4370 -18.4257 -18.3980 -18.3655 -18.3214
   -18.3108 -18.3096 -18.2975 -18.2959 -18.2939 -18.2868 -18.2862 -18.2808
   -18.2781 -18.2775 -18.2103 -18.1989 -18.1967 -18.1885 -18.1803 -18.1793
   -18.1774 -18.1731 -18.1724 -18.1691 -18.1689 -18.1671 -18.1666 -18.1599
   -18.1582 -18.1582 -18.1580 -18.1568 -18.1544 -18.1541 -18.1499 -18.1490
   -18.1471 -18.1437 -18.1373 -18.1366 -18.1267 -18.1219 -18.1132 -18.1091
    -9.4013  -9.3130  -9.2666  -9.1935  -9.1373  -9.0829  -9.0506  -9.0139
    -8.9874  -8.9501  -8.9049  -8.8910  -8.8285  -8.8038  -8.7928  -8.7819
    -8.7682  -8.7382  -8.7082  -8.6887  -8.6776  -8.6450  -8.6121  -8.5707
    -5.2808  -5.2667  -5.2605  -5.2354  -5.2257  -5.2245  -5.2111  -5.2065
    -5.2046  -5.2023  -5.1934  -5.1899  -5.1870  -5.1807  -5.1758  -5.1651
    -5.1622  -5.1544  -5.1389  -5.1307  -5.1157  -5.0617  -5.0532  -5.0417
    -4.1981  -4.0012  -3.9186  -3.7162  -3.6618  -3.4342  -3.3676  -3.1394
    -0.6811  -0.6046  -0.5021  -0.4589  -0.3602  -0.2772  -0.1886  -0.1443
    -0.0688  -0.0177   0.0613   0.1917   0.3082   0.3910   0.4642   0.5189
     0.5389   0.5679   0.5871   0.6054   0.6406   0.6766   0.7029   0.7409
     0.8354   0.8693   0.9089   0.9997   1.0146   1.0532   1.0885   1.1128
     1.1417   1.1555   1.2382   1.2580   1.2828   1.2905   1.3543   1.3834
     1.4409   1.4571   1.4929   1.5403   1.5652   1.5862   1.6041   1.6348
     1.6541   1.6742   1.6892   1.7104   1.7233   1.7511   1.7844   1.7925
     1.8333   1.8522   1.8652   1.8890   1.9083   1.9398   1.9677   1.9922
     2.0054   2.0236   2.0881   2.2155   2.3013   2.4341   2.4959   2.5937

          k =-0.3750-0.3750 0.3750 (132612 PWs)   bands (ev):

   -18.5146 -18.4662 -18.4429 -18.4370 -18.4257 -18.3980 -18.3655 -18.3214
   -18.3108 -18.3096 -18.2975 -18.2959 -18.2939 -18.2868 -18.2862 -18.2808
   -18.2781 -18.2775 -18.2103 -18.1989 -18.1967 -18.1885 -18.1803 -18.1793
   -18.1774 -18.1731 -18.1724 -18.1691 -18.1689 -18.1671 -18.1666 -18.1599
   -18.1582 -18.1582 -18.1580 -18.1568 -18.1544 -18.1541 -18.1499 -18.1490
   -18.1471 -18.1437 -18.1373 -18.1366 -18.1267 -18.1219 -18.1132 -18.1091
    -9.3838  -9.3081  -9.2837  -9.1791  -9.1576  -9.0849  -9.0762  -9.0221
    -8.9860  -8.9329  -8.9258  -8.8771  -8.8283  -8.8065  -8.7959  -8.7527
    -8.7406  -8.7320  -8.7086  -8.6934  -8.6791  -8.6537  -8.6147  -8.5851
    -5.2807  -5.2668  -5.2607  -5.2352  -5.2265  -5.2242  -5.2105  -5.2076
    -5.2048  -5.2017  -5.1935  -5.1900  -5.1876  -5.1803  -5.1754  -5.1654
    -5.1621  -5.1541  -5.1385  -5.1305  -5.1156  -5.0617  -5.0533  -5.0414
    -4.0704  -3.8947  -3.8448  -3.7720  -3.6355  -3.5672  -3.5428  -3.3435
    -0.4691  -0.3454  -0.3165  -0.2346  -0.1977  -0.1586  -0.1234  -0.0569
    -0.0142   0.0235   0.0711   0.2259   0.2435   0.3353   0.3761   0.4634
     0.4830   0.5084   0.5435   0.5643   0.5899   0.6266   0.6442   0.6900
     0.8194   0.8833   0.9007   0.9575   0.9981   1.0141   1.0561   1.0812
     1.1059   1.1175   1.1472   1.1727   1.2100   1.2240   1.2639   1.3230
     1.3866   1.4557   1.4899   1.5411   1.5707   1.6284   1.6422   1.6806
     1.6957   1.7140   1.7291   1.7412   1.7556   1.7796   1.8047   1.8169
     1.8394   1.8556   1.8641   1.8903   1.9159   1.9295   1.9453   1.9662
     1.9785   1.9988   2.0157   2.0696   2.1520   2.1771   2.2231   2.3037

          k =-0.3750 0.3750-0.3750 (132612 PWs)   bands (ev):

   -18.5146 -18.4662 -18.4429 -18.4370 -18.4257 -18.3980 -18.3655 -18.3214
   -18.3108 -18.3096 -18.2975 -18.2959 -18.2939 -18.2868 -18.2862 -18.2808
   -18.2781 -18.2775 -18.2103 -18.1989 -18.1967 -18.1885 -18.1803 -18.1793
   -18.1774 -18.1731 -18.1724 -18.1691 -18.1689 -18.1671 -18.1666 -18.1599
   -18.1582 -18.1582 -18.1580 -18.1568 -18.1544 -18.1541 -18.1499 -18.1490
   -18.1471 -18.1437 -18.1373 -18.1366 -18.1267 -18.1219 -18.1132 -18.1091
    -9.3849  -9.3003  -9.2893  -9.1818  -9.1598  -9.0894  -9.0530  -9.0378
    -8.9863  -8.9340  -8.9254  -8.8753  -8.8275  -8.8073  -8.7952  -8.7536
    -8.7376  -8.7359  -8.7107  -8.6881  -8.6801  -8.6538  -8.6164  -8.5845
    -5.2807  -5.2666  -5.2609  -5.2354  -5.2263  -5.2241  -5.2111  -5.2066
    -5.2051  -5.2022  -5.1935  -5.1901  -5.1870  -5.1804  -5.1754  -5.1649
    -5.1623  -5.1543  -5.1388  -5.1304  -5.1155  -5.0617  -5.0534  -5.0413
    -4.0729  -3.8805  -3.8473  -3.7890  -3.6159  -3.5655  -3.5583  -3.3417
    -0.4346  -0.3718  -0.2997  -0.2622  -0.2278  -0.1718  -0.1021  -0.0665
    -0.0131   0.0183   0.0760   0.2634   0.3095   0.3654   0.3770   0.4048
     0.4741   0.4855   0.5338   0.5537   0.5850   0.6063   0.6604   0.7011
     0.8476   0.8915   0.9197   0.9630   0.9657   0.9971   1.0122   1.0469
     1.0957   1.1301   1.1645   1.2005   1.2237   1.2469   1.2731   1.3069
     1.3984   1.4559   1.4999   1.5242   1.5699   1.5898   1.6593   1.6651
     1.6885   1.7124   1.7254   1.7384   1.7632   1.7861   1.8062   1.8332
     1.8465   1.8545   1.8781   1.8899   1.9038   1.9429   1.9572   1.9642
     1.9992   2.0113   2.0347   2.0617   2.0815   2.1835   2.2116   2.3169

          k = 0.3750-0.3750-0.3750 (132612 PWs)   bands (ev):

   -18.5146 -18.4662 -18.4429 -18.4370 -18.4257 -18.3980 -18.3655 -18.3214
   -18.3108 -18.3096 -18.2975 -18.2959 -18.2939 -18.2868 -18.2862 -18.2808
   -18.2781 -18.2775 -18.2103 -18.1989 -18.1967 -18.1885 -18.1803 -18.1793
   -18.1774 -18.1731 -18.1724 -18.1691 -18.1689 -18.1671 -18.1666 -18.1599
   -18.1582 -18.1582 -18.1580 -18.1568 -18.1544 -18.1541 -18.1499 -18.1490
   -18.1471 -18.1437 -18.1373 -18.1366 -18.1267 -18.1219 -18.1132 -18.1091
    -9.3852  -9.3030  -9.2855  -9.1817  -9.1574  -9.0950  -9.0640  -9.0241
    -8.9836  -8.9359  -8.9257  -8.8762  -8.8290  -8.8057  -8.7929  -8.7546
    -8.7420  -8.7343  -8.7095  -8.6863  -8.6807  -8.6562  -8.6145  -8.5849
    -5.2808  -5.2668  -5.2607  -5.2353  -5.2261  -5.2243  -5.2112  -5.2065
    -5.2048  -5.2023  -5.1937  -5.1901  -5.1870  -5.1806  -5.1753  -5.1651
    -5.1622  -5.1541  -5.1387  -5.1303  -5.1157  -5.0617  -5.0534  -5.0414
    -4.0724  -3.8901  -3.8433  -3.7799  -3.6123  -3.5773  -3.5550  -3.3407
    -0.4396  -0.3778  -0.3051  -0.2522  -0.2067  -0.1567  -0.1072  -0.0684
    -0.0190   0.0330   0.0583   0.2158   0.2905   0.3295   0.3942   0.4347
     0.4667   0.5161   0.5512   0.5681   0.5826   0.6226   0.6539   0.6941
     0.8548   0.8813   0.9284   0.9545   0.9693   1.0023   1.0038   1.0610
     1.0955   1.1334   1.1582   1.1837   1.2129   1.2508   1.2657   1.3034
     1.4039   1.4600   1.4866   1.5219   1.5755   1.5980   1.6342   1.6792
     1.6876   1.7118   1.7265   1.7454   1.7641   1.7749   1.8039   1.8233
     1.8492   1.8717   1.8869   1.9012   1.9205   1.9281   1.9490   1.9696
     1.9890   2.0043   2.0291   2.0826   2.1159   2.1661   2.2152   2.2876

     highest occupied level (ev):     3.1851

!    total energy              =   -2256.32660186 Ry
     estimated scf accuracy    <          7.1E-11 Ry

     The total energy is the sum of the following terms:
     one-electron contribution =    -987.42245272 Ry
     hartree contribution      =     621.79470953 Ry
     xc contribution           =    -647.44574727 Ry
     ewald contribution        =   -1243.25311140 Ry

     convergence has been achieved in  15 iterations

     Forces acting on atoms (cartesian axes, Ry/au):

     atom    1 type  1   force =     0.00075492   -0.00126928   -0.00008761
     atom    2 type  2   force =     0.00497718    0.00014451   -0.00188705
     atom    3 type  3   force =    -0.00766144   -0.00144638    0.00309150
     atom    4 type  3   force =    -0.00127378   -0.00032922    0.00854138
     atom    5 type  3   force =     0.00185550   -0.00840799    0.00056483
     atom    6 type  1   force =    -0.00110920   -0.00461095   -0.00076101
     atom    7 type  2   force =     0.00053257   -0.01155998    0.00159188
     atom    8 type  3   force =    -0.00280024   -0.00267995    0.00063467
     atom    9 type  3   force =     0.00255309   -0.00654242   -0.00294571
     atom   10 type  3   force =     0.00014785    0.02306835   -0.00557035
     atom   11 type  1   force =    -0.00134951    0.00240020    0.00049197
     atom   12 type  2   force =    -0.01245308    0.00343174    0.00533410
     atom   13 type  3   force =    -0.00331002    0.00133042    0.00381128
     atom   14 type  3   force =     0.00090528   -0.00538597    0.00406587
     atom   15 type  3   force =     0.00043694    0.01334106   -0.00446211
     atom   16 type  1   force =     0.00072873    0.00324775    0.00089644
     atom   17 type  2   force =     0.00085311    0.01106332    0.00068752
     atom   18 type  3   force =     0.01494917    0.00013662    0.00274336
     atom   19 type  3   force =     0.00906630   -0.00455201   -0.00164261
     atom   20 type  3   force =    -0.00224495   -0.00428555   -0.00023561
     atom   21 type  1   force =    -0.00058504   -0.00023902   -0.00110492
     atom   22 type  2   force =     0.00315433   -0.00821200   -0.00347338
     atom   23 type  3   force =    -0.00267833   -0.00071057    0.00175585
     atom   24 type  3   force =     0.00495395   -0.00218412   -0.01302198
     atom   25 type  3   force =    -0.00055121   -0.02196270   -0.00107327
     atom   26 type  1   force =     0.00189963   -0.00347627   -0.00013595
     atom   27 type  2   force =    -0.00261360    0.00522411    0.00240554
     atom   28 type  3   force =    -0.00218010   -0.00429591   -0.00800449
     atom   29 type  3   force =     0.00071398    0.00417847    0.00998244
     atom   30 type  3   force =     0.00131178    0.00037490    0.00173168
     atom   31 type  1   force =    -0.00002518   -0.00096738   -0.00110072
     atom   32 type  2   force =     0.00784714    0.01914508    0.00553895
     atom   33 type  3   force =    -0.00534375   -0.00182603   -0.00027546
     atom   34 type  3   force =    -0.00396782   -0.00188375    0.00653133
     atom   35 type  3   force =    -0.00104945    0.01504929    0.00366165
     atom   36 type  1   force =    -0.00340136    0.00323903    0.00129762
     atom   37 type  2   force =     0.00582520   -0.01999712   -0.00464310
     atom   38 type  3   force =    -0.00976094   -0.00176832   -0.00016357
     atom   39 type  3   force =     0.00217240   -0.00660221   -0.01274619
     atom   40 type  3   force =    -0.00128007    0.01982027   -0.00202476

     Total force =     0.071058     Total SCF correction =     0.000032


     Computing stress (Cartesian axis) and pressure

          total   stress  (Ry/bohr**3)                   (kbar)     P=       -8.60
  -0.00006011   0.00000119  -0.00000173           -8.84        0.17       -0.25
   0.00000119  -0.00005018  -0.00000281            0.17       -7.38       -0.41
  -0.00000173  -0.00000281  -0.00006515           -0.25       -0.41       -9.58

 
     init_run     :     20.09s CPU     16.85s WALL (       1 calls)
     electrons    :    202.34s CPU    214.25s WALL (       1 calls)
     forces       :      8.79s CPU      3.95s WALL (       1 calls)
     stress       :     31.01s CPU     30.65s WALL (       1 calls)

     Called by init_run:
     wfcinit      :     12.20s CPU     13.80s WALL (       1 calls)
                                       13.80s GPU  (       1 calls)
     potinit      :      4.63s CPU      1.40s WALL (       1 calls)
     hinit0       :      2.68s CPU      0.97s WALL (       1 calls)

     Called by electrons:
     c_bands      :    122.57s CPU    172.56s WALL (      16 calls)
     sum_band     :     21.38s CPU     20.62s WALL (      16 calls)
                                       20.62s GPU  (      16 calls)
     v_of_rho     :     54.36s CPU     16.41s WALL (      16 calls)
     mix_rho      :      6.13s CPU      4.80s WALL (      16 calls)

     Called by c_bands:
     init_us_2    :      2.43s CPU      3.15s WALL (     280 calls)
                                        3.15s GPU  (     280 calls)
     cegterg      :     82.19s CPU    129.46s WALL (     128 calls)

     Called by *egterg:
     cdiaghg      :     14.09s CPU     26.07s WALL (     669 calls)
                                       26.04s GPU  (     669 calls)
     h_psi        :     55.70s CPU     75.01s WALL (     685 calls)
                                       74.56s GPU  (     685 calls)
     g_psi        :      0.00s CPU      0.37s WALL (     549 calls)
                                        0.36s GPU  (     549 calls)

     Called by h_psi:
     h_psi:calbec :      0.32s CPU     10.03s WALL (     685 calls)
                                       10.03s GPU  (     685 calls)
     vloc_psi     :     40.61s CPU     54.99s WALL (     685 calls)
                                       54.06s GPU  (     685 calls)
     add_vuspsi   :      0.34s CPU      9.90s WALL (     685 calls)
                                        9.90s GPU  (     685 calls)

     General routines
     calbec       :      0.31s CPU      0.39s WALL (     725 calls)
     fft          :     25.59s CPU      6.53s WALL (     185 calls)
                                        0.01s GPU  (       6 calls)
     ffts         :      2.62s CPU      0.68s WALL (      16 calls)
     fftw         :      0.65s CPU     63.57s WALL (   10654 calls)
                                       47.53s GPU  (   10654 calls)
 
     Parallel routines
 
     PWSCF        :   4m22.89s CPU   4m26.44s WALL

 
   This run was terminated on:  22:44:14  22Apr2021            

=------------------------------------------------------------------------------=
   JOB DONE.
=------------------------------------------------------------------------------=
