
     Program PWSCF v.6.7MaX starts on 22Apr2021 at 22:17:41 

     This program is part of the open-source Quantum ESPRESSO suite
     for quantum simulation of materials; please cite
         "P. Giannozzi et al., J. Phys.:Condens. Matter 21 395502 (2009);
         "P. Giannozzi et al., J. Phys.:Condens. Matter 29 465901 (2017);
         "P. Giannozzi et al., J. Chem. Phys. 152 154105 (2020);
          URL http://www.quantum-espresso.org", 
     in publications or presentations arising from this work. More details at
     http://www.quantum-espresso.org/quote

     Parallel version (MPI & OpenMP), running on      16 processor cores
     Number of MPI processes:                 4
     Threads/MPI process:                     4

     MPI processes distributed on     1 nodes
     K-points division:     npool     =       4
     Reading input from ESP_26.pwi
Warning: card &CELL ignored
Warning: card / ignored

     Current dimensions of program PWSCF are:
     Max number of different atomic species (ntypx) = 10
     Max number of k-points (npk) =  40000
     Max angular momentum in pseudopotentials (lmaxx) =  3
     Message from routine read_pp_mesh:
     mesh size missing, using the one in header
     Message from routine read_pp_mesh:
     mesh size missing, using the one in header
     Message from routine read_pp_mesh:
     mesh size missing, using the one in header

     Subspace diagonalization in iterative solution of the eigenvalue problem:
     a serial algorithm will be used

 
     G-vector sticks info
     --------------------
     sticks:   dense  smooth     PW     G-vecs:    dense   smooth      PW
     Sum       12589   12589   3289              1061107  1061107  140905
 
     Using Slab Decomposition
 


     bravais-lattice index     =            0
     lattice parameter (alat)  =      23.7585  a.u.
     unit-cell volume          =   13410.8736 (a.u.)^3
     number of atoms/cell      =           40
     number of atomic types    =            3
     number of electrons       =       352.00
     number of Kohn-Sham states=          176
     kinetic-energy cutoff     =      70.0000  Ry
     charge density cutoff     =     280.0000  Ry
     scf convergence threshold =      1.0E-10
     mixing beta               =       0.7000
     number of iterations used =            8  plain     mixing
     Exchange-correlation= PBESOL
                           (   1   4  10   8   0   0   0)

     GPU acceleration is ACTIVE.


     celldm(1)=  23.758500  celldm(2)=   0.000000  celldm(3)=   0.000000
     celldm(4)=   0.000000  celldm(5)=   0.000000  celldm(6)=   0.000000

     crystal axes: (cart. coord. in units of alat)
               a(1) = (   1.000000   0.000000   0.000000 )  
               a(2) = (   0.000000   1.000000   0.000000 )  
               a(3) = (   0.000000   0.000000   1.000000 )  

     reciprocal axes: (cart. coord. in units 2 pi/alat)
               b(1) = (  1.000000  0.000000  0.000000 )  
               b(2) = (  0.000000  1.000000  0.000000 )  
               b(3) = (  0.000000  0.000000  1.000000 )  


     PseudoPot. # 1 for Cs read from file:
     /m100/home/userexternal/lmonacel/espresso/pseudo/Cs-nc-pbesol.upf
     MD5 check sum: 9d2f2206a14dc5b3b3f3fbfae186bed4
     Pseudo is Norm-conserving + core correction, Zval =  9.0
     Generated using ONCVPSP code by D. R. Hamann
     Using radial grid of 2384 points,  8 beta functions with: 
                l(1) =   0
                l(2) =   0
                l(3) =   1
                l(4) =   1
                l(5) =   2
                l(6) =   2
                l(7) =   3
                l(8) =   3

     PseudoPot. # 2 for Sn read from file:
     /m100/home/userexternal/lmonacel/espresso/pseudo/Sn-nc-pbesol.upf
     MD5 check sum: c2995d571af40102bfea7461443d92cf
     Pseudo is Norm-conserving + core correction, Zval = 14.0
     Generated using ONCVPSP code by D. R. Hamann
     Using radial grid of 1628 points,  6 beta functions with: 
                l(1) =   0
                l(2) =   0
                l(3) =   1
                l(4) =   1
                l(5) =   2
                l(6) =   2

     PseudoPot. # 3 for I  read from file:
     /m100/home/userexternal/lmonacel/espresso/pseudo/I-nc-pbesol.upf
     MD5 check sum: 80ed5ceb2eb9c553cfb6760a299d9c5b
     Pseudo is Norm-conserving + core correction, Zval =  7.0
     Generated using ONCVPSP code by D. R. Hamann
     Using radial grid of 1182 points,  6 beta functions with: 
                l(1) =   0
                l(2) =   0
                l(3) =   1
                l(4) =   1
                l(5) =   2
                l(6) =   2

     atomic species   valence    mass     pseudopotential
        Cs             9.00   132.90545     Cs( 1.00)
        Sn            14.00   118.71000     Sn( 1.00)
        I              7.00   126.90447     I ( 1.00)

     No symmetry found



   Cartesian axes

     site n.     atom                  positions (alat units)
         1           Cs  tau(   1) = (   0.2427215   0.2888557   0.2553725  )
         2           Sn  tau(   2) = (   0.0206886   0.0142061   0.0119091  )
         3           I   tau(   3) = (   0.2588499  -0.0304564  -0.0113598  )
         4           I   tau(   4) = (   0.0093585  -0.0207532   0.2706717  )
         5           I   tau(   5) = (   0.0107124   0.2548061   0.0426975  )
         6           Cs  tau(   6) = (   0.2642870   0.2645325   0.7503052  )
         7           Sn  tau(   7) = (  -0.0002796   0.0057069   0.5137593  )
         8           I   tau(   8) = (   0.2514457   0.0170512   0.4805087  )
         9           I   tau(   9) = (  -0.0057713   0.0147595   0.7698792  )
        10           I   tau(  10) = (  -0.0056593   0.2417182   0.5210609  )
        11           Cs  tau(  11) = (   0.2660877   0.7765322   0.2199537  )
        12           Sn  tau(  12) = (  -0.0016251   0.5002776  -0.0024546  )
        13           I   tau(  13) = (   0.2458972   0.5043372  -0.0023111  )
        14           I   tau(  14) = (   0.0178319   0.4852222   0.2462618  )
        15           I   tau(  15) = (  -0.0012669   0.7597367   0.0029427  )
        16           Cs  tau(  16) = (   0.2299793   0.7377946   0.7497288  )
        17           Sn  tau(  17) = (  -0.0018542   0.5014686   0.4878749  )
        18           I   tau(  18) = (   0.2566516   0.5140587   0.4664830  )
        19           I   tau(  19) = (  -0.0239290   0.5076089   0.7427324  )
        20           I   tau(  20) = (   0.0159653   0.7452659   0.5031917  )
        21           Cs  tau(  21) = (   0.7286458   0.2477781   0.3260247  )
        22           Sn  tau(  22) = (   0.5238578  -0.0165659  -0.0140198  )
        23           I   tau(  23) = (   0.7621794   0.0079711  -0.0224797  )
        24           I   tau(  24) = (   0.5065520  -0.0148447   0.2429868  )
        25           I   tau(  25) = (   0.5118196   0.2475359   0.0275810  )
        26           Cs  tau(  26) = (   0.6976867   0.2308623   0.7733674  )
        27           Sn  tau(  27) = (   0.4864055   0.0016945   0.4935197  )
        28           I   tau(  28) = (   0.7543318  -0.0436449   0.5054314  )
        29           I   tau(  29) = (   0.4970423   0.0518211   0.7420988  )
        30           I   tau(  30) = (   0.4982685   0.2616139   0.4767985  )
        31           Cs  tau(  31) = (   0.7647893   0.7589057   0.2532813  )
        32           Sn  tau(  32) = (   0.5011430   0.4805003  -0.0128284  )
        33           I   tau(  33) = (   0.7505701   0.4650932   0.0036229  )
        34           I   tau(  34) = (   0.4917521   0.4926669   0.2421198  )
        35           I   tau(  35) = (   0.5263851   0.7514219  -0.0391232  )
        36           Cs  tau(  36) = (   0.7515159   0.7358473   0.7428873  )
        37           Sn  tau(  37) = (   0.4950268   0.5080836   0.4952054  )
        38           I   tau(  38) = (   0.7490324   0.5129210   0.4936136  )
        39           I   tau(  39) = (   0.4745021   0.4721117   0.7361644  )
        40           I   tau(  40) = (   0.4824785   0.7632548   0.5094411  )

     number of k points=    32
                       cart. coord. in units 2pi/alat
        k(    1) = (   0.1250000   0.1250000   0.1250000), wk =   0.0625000
        k(    2) = (   0.1250000   0.1250000   0.3750000), wk =   0.0625000
        k(    3) = (   0.1250000   0.3750000   0.3750000), wk =   0.0625000
        k(    4) = (   0.3750000   0.3750000   0.3750000), wk =   0.0625000
        k(    5) = (  -0.1250000  -0.1250000   0.1250000), wk =   0.0625000
        k(    6) = (  -0.1250000   0.1250000  -0.1250000), wk =   0.0625000
        k(    7) = (   0.1250000  -0.1250000  -0.1250000), wk =   0.0625000
        k(    8) = (  -0.1250000  -0.1250000   0.3750000), wk =   0.0625000
        k(    9) = (  -0.1250000   0.1250000  -0.3750000), wk =   0.0625000
        k(   10) = (   0.1250000  -0.1250000  -0.3750000), wk =   0.0625000
        k(   11) = (   0.3750000  -0.1250000   0.1250000), wk =   0.0625000
        k(   12) = (  -0.3750000  -0.1250000  -0.1250000), wk =   0.0625000
        k(   13) = (   0.3750000   0.1250000  -0.1250000), wk =   0.0625000
        k(   14) = (  -0.3750000   0.1250000   0.1250000), wk =   0.0625000
        k(   15) = (  -0.1250000   0.3750000   0.1250000), wk =   0.0625000
        k(   16) = (  -0.1250000  -0.3750000  -0.1250000), wk =   0.0625000
        k(   17) = (   0.1250000   0.3750000  -0.1250000), wk =   0.0625000
        k(   18) = (   0.1250000  -0.3750000   0.1250000), wk =   0.0625000
        k(   19) = (  -0.1250000  -0.3750000   0.3750000), wk =   0.0625000
        k(   20) = (  -0.1250000   0.3750000  -0.3750000), wk =   0.0625000
        k(   21) = (   0.1250000  -0.3750000  -0.3750000), wk =   0.0625000
        k(   22) = (   0.3750000   0.1250000  -0.3750000), wk =   0.0625000
        k(   23) = (  -0.3750000  -0.1250000  -0.3750000), wk =   0.0625000
        k(   24) = (   0.3750000  -0.1250000   0.3750000), wk =   0.0625000
        k(   25) = (  -0.3750000   0.1250000   0.3750000), wk =   0.0625000
        k(   26) = (   0.3750000  -0.3750000   0.1250000), wk =   0.0625000
        k(   27) = (  -0.3750000  -0.3750000  -0.1250000), wk =   0.0625000
        k(   28) = (   0.3750000   0.3750000  -0.1250000), wk =   0.0625000
        k(   29) = (  -0.3750000   0.3750000   0.1250000), wk =   0.0625000
        k(   30) = (  -0.3750000  -0.3750000   0.3750000), wk =   0.0625000
        k(   31) = (  -0.3750000   0.3750000  -0.3750000), wk =   0.0625000
        k(   32) = (   0.3750000  -0.3750000  -0.3750000), wk =   0.0625000

     Dense  grid:  1061107 G-vectors     FFT dimensions: ( 128, 128, 128)

     Estimated max dynamical RAM per process >       6.82 GB

     Estimated total dynamical RAM >      27.27 GB

     Initial potential from superposition of free atoms

     starting charge  351.69472, renormalised to  352.00000
     Starting wfcs are  208 randomized atomic wfcs

     total cpu time spent up to now is       17.7 secs

     Self-consistent Calculation

     iteration #  1     ecut=    70.00 Ry     beta= 0.70
     Davidson diagonalization with overlap
     ethr =  1.00E-02,  avg # of iterations =  2.0

     Threshold (ethr) on eigenvalues was too large:
     Diagonalizing with lowered threshold

     Davidson diagonalization with overlap
     ethr =  2.15E-04,  avg # of iterations =  4.0

     total cpu time spent up to now is       38.6 secs

     total energy              =   -2256.03888082 Ry
     estimated scf accuracy    <       0.65697849 Ry

     iteration #  2     ecut=    70.00 Ry     beta= 0.70
     Davidson diagonalization with overlap
     ethr =  1.87E-04,  avg # of iterations =  3.3

     total cpu time spent up to now is       51.1 secs

     total energy              =   -2256.24955313 Ry
     estimated scf accuracy    <       0.26555138 Ry

     iteration #  3     ecut=    70.00 Ry     beta= 0.70
     Davidson diagonalization with overlap
     ethr =  7.54E-05,  avg # of iterations =  2.2

     total cpu time spent up to now is       62.6 secs

     total energy              =   -2256.29896818 Ry
     estimated scf accuracy    <       0.01266181 Ry

     iteration #  4     ecut=    70.00 Ry     beta= 0.70
     Davidson diagonalization with overlap
     ethr =  3.60E-06,  avg # of iterations =  4.9

     total cpu time spent up to now is       76.8 secs

     total energy              =   -2256.30435478 Ry
     estimated scf accuracy    <       0.00639369 Ry

     iteration #  5     ecut=    70.00 Ry     beta= 0.70
     Davidson diagonalization with overlap
     ethr =  1.82E-06,  avg # of iterations =  3.7

     total cpu time spent up to now is       89.1 secs

     total energy              =   -2256.30552544 Ry
     estimated scf accuracy    <       0.00110734 Ry

     iteration #  6     ecut=    70.00 Ry     beta= 0.70
     Davidson diagonalization with overlap
     ethr =  3.15E-07,  avg # of iterations =  3.9

     total cpu time spent up to now is      101.4 secs

     total energy              =   -2256.30567956 Ry
     estimated scf accuracy    <       0.00022182 Ry

     iteration #  7     ecut=    70.00 Ry     beta= 0.70
     Davidson diagonalization with overlap
     ethr =  6.30E-08,  avg # of iterations =  4.2

     total cpu time spent up to now is      114.6 secs

     total energy              =   -2256.30574779 Ry
     estimated scf accuracy    <       0.00001583 Ry

     iteration #  8     ecut=    70.00 Ry     beta= 0.70
     Davidson diagonalization with overlap
     ethr =  4.50E-09,  avg # of iterations =  5.4

     total cpu time spent up to now is      129.6 secs

     total energy              =   -2256.30575658 Ry
     estimated scf accuracy    <       0.00000556 Ry

     iteration #  9     ecut=    70.00 Ry     beta= 0.70
     Davidson diagonalization with overlap
     ethr =  1.58E-09,  avg # of iterations =  4.0

     total cpu time spent up to now is      142.5 secs

     total energy              =   -2256.30575782 Ry
     estimated scf accuracy    <       0.00000096 Ry

     iteration # 10     ecut=    70.00 Ry     beta= 0.70
     Davidson diagonalization with overlap
     ethr =  2.71E-10,  avg # of iterations =  3.8

     total cpu time spent up to now is      156.3 secs

     total energy              =   -2256.30575820 Ry
     estimated scf accuracy    <       0.00000011 Ry

     iteration # 11     ecut=    70.00 Ry     beta= 0.70
     Davidson diagonalization with overlap
     ethr =  3.00E-11,  avg # of iterations =  6.2

     total cpu time spent up to now is      173.3 secs

     total energy              =   -2256.30575827 Ry
     estimated scf accuracy    <       0.00000004 Ry

     iteration # 12     ecut=    70.00 Ry     beta= 0.70
     Davidson diagonalization with overlap
     ethr =  1.08E-11,  avg # of iterations =  3.8

     total cpu time spent up to now is      186.5 secs

     total energy              =   -2256.30575828 Ry
     estimated scf accuracy    <          6.5E-09 Ry

     iteration # 13     ecut=    70.00 Ry     beta= 0.70
     Davidson diagonalization with overlap
     ethr =  1.84E-12,  avg # of iterations =  5.1

     total cpu time spent up to now is      201.6 secs

     total energy              =   -2256.30575829 Ry
     estimated scf accuracy    <          5.9E-10 Ry

     iteration # 14     ecut=    70.00 Ry     beta= 0.70
     Davidson diagonalization with overlap
     ethr =  1.68E-13,  avg # of iterations =  6.3

     total cpu time spent up to now is      219.5 secs

     total energy              =   -2256.30575829 Ry
     estimated scf accuracy    <          3.5E-10 Ry

     iteration # 15     ecut=    70.00 Ry     beta= 0.70
     Davidson diagonalization with overlap
     ethr =  1.00E-13,  avg # of iterations =  2.8

     total cpu time spent up to now is      231.2 secs

     End of self-consistent calculation

          k = 0.1250 0.1250 0.1250 (132670 PWs)   bands (ev):

   -18.5101 -18.4572 -18.4384 -18.3500 -18.3425 -18.3360 -18.3282 -18.3235
   -18.3164 -18.3136 -18.3111 -18.3039 -18.2979 -18.2893 -18.2889 -18.2765
   -18.2725 -18.2659 -18.2645 -18.2622 -18.2586 -18.2562 -18.2524 -18.2480
   -18.2473 -18.2451 -18.2428 -18.2398 -18.2380 -18.2375 -18.2372 -18.2367
   -18.2317 -18.2288 -18.2240 -18.2191 -18.2104 -18.1857 -18.1702 -18.1605
   -18.1561 -18.1530 -18.1482 -18.1441 -18.1413 -18.1388 -18.1359 -18.1263
    -9.4252  -9.2725  -9.2487  -9.2098  -9.1139  -9.0750  -9.0522  -9.0352
    -9.0105  -8.9926  -8.9606  -8.9180  -8.8959  -8.8672  -8.8475  -8.8261
    -8.7758  -8.7631  -8.7017  -8.6949  -8.6503  -8.6229  -8.6150  -8.5499
    -5.2857  -5.2821  -5.2758  -5.2255  -5.2152  -5.2071  -5.2015  -5.1898
    -5.1874  -5.1310  -5.1276  -5.1203  -5.1127  -5.0992  -5.0926  -5.0508
    -5.0453  -5.0429  -5.0416  -5.0152  -5.0086  -4.9894  -4.9770  -4.9671
    -4.4587  -3.9559  -3.9211  -3.8936  -3.3989  -3.3601  -3.3343  -2.7376
    -0.7755  -0.7496  -0.6870  -0.6081  -0.5600  -0.5258  -0.5057  -0.4703
    -0.4465  -0.3960  -0.2601  -0.1761   0.4423   0.4873   0.5100   0.6314
     0.6865   0.7095   0.7429   0.7630   0.7947   0.9087   0.9421   0.9653
     0.9917   1.0433   1.0625   1.0732   1.1140   1.1376   1.1538   1.1933
     1.2196   1.2359   1.2655   1.2752   1.3053   1.3282   1.3723   1.3888
     1.3999   1.4155   1.4286   1.4576   1.4738   1.4942   1.5229   1.5500
     1.5839   1.6031   1.6188   1.6350   1.6645   1.6790   1.7128   1.7328
     1.7712   1.7952   1.8665   1.9307   1.9922   2.0437   2.0803   2.1063
     2.1265   2.1972   2.2236   2.3041   2.6491   2.7039   2.7284   3.1077

          k = 0.1250 0.1250 0.3750 (132608 PWs)   bands (ev):

   -18.5101 -18.4572 -18.4384 -18.3500 -18.3425 -18.3360 -18.3282 -18.3235
   -18.3164 -18.3136 -18.3111 -18.3040 -18.2979 -18.2893 -18.2889 -18.2765
   -18.2725 -18.2659 -18.2645 -18.2622 -18.2586 -18.2562 -18.2524 -18.2480
   -18.2473 -18.2451 -18.2428 -18.2398 -18.2380 -18.2375 -18.2372 -18.2367
   -18.2317 -18.2288 -18.2240 -18.2191 -18.2104 -18.1857 -18.1702 -18.1605
   -18.1561 -18.1530 -18.1482 -18.1441 -18.1413 -18.1388 -18.1359 -18.1263
    -9.4055  -9.2967  -9.2493  -9.1918  -9.1413  -9.0965  -9.0537  -9.0347
    -9.0048  -8.9835  -8.9483  -8.9147  -8.8968  -8.8657  -8.8504  -8.8232
    -8.7749  -8.7581  -8.6956  -8.6710  -8.6587  -8.6302  -8.6152  -8.5642
    -5.2857  -5.2819  -5.2758  -5.2254  -5.2146  -5.2063  -5.2018  -5.1899
    -5.1881  -5.1309  -5.1272  -5.1206  -5.1126  -5.0994  -5.0933  -5.0508
    -5.0456  -5.0431  -5.0414  -5.0145  -5.0085  -4.9896  -4.9773  -4.9672
    -4.3291  -4.1102  -3.7952  -3.7824  -3.5691  -3.5469  -3.2070  -2.9664
    -0.7392  -0.6630  -0.6299  -0.5638  -0.5366  -0.5159  -0.4406  -0.3770
    -0.1711  -0.0414   0.0008   0.1081   0.4009   0.4600   0.5119   0.5469
     0.5594   0.6017   0.6420   0.6610   0.7058   0.7480   0.7922   0.8262
     0.8855   0.9099   1.0241   1.0456   1.0600   1.0809   1.1168   1.1690
     1.1852   1.2212   1.2494   1.2705   1.3229   1.3471   1.3545   1.3777
     1.4034   1.4224   1.4366   1.4585   1.4815   1.5106   1.5433   1.5937
     1.6102   1.6263   1.6432   1.6634   1.6968   1.7047   1.7201   1.7436
     1.8135   1.8511   1.8683   1.9161   1.9396   1.9689   2.0203   2.0417
     2.0846   2.1369   2.2031   2.2545   2.4001   2.4246   2.7207   2.8402

          k = 0.1250 0.3750 0.3750 (132616 PWs)   bands (ev):

   -18.5101 -18.4572 -18.4384 -18.3500 -18.3425 -18.3360 -18.3282 -18.3235
   -18.3164 -18.3136 -18.3111 -18.3039 -18.2979 -18.2893 -18.2889 -18.2765
   -18.2725 -18.2659 -18.2645 -18.2622 -18.2586 -18.2562 -18.2524 -18.2480
   -18.2473 -18.2451 -18.2428 -18.2398 -18.2380 -18.2375 -18.2372 -18.2367
   -18.2317 -18.2288 -18.2240 -18.2191 -18.2104 -18.1857 -18.1702 -18.1605
   -18.1561 -18.1530 -18.1482 -18.1441 -18.1413 -18.1388 -18.1359 -18.1263
    -9.3881  -9.2842  -9.2689  -9.2087  -9.1470  -9.1063  -9.0693  -9.0222
    -9.0004  -8.9756  -8.9581  -8.9119  -8.8959  -8.8631  -8.8413  -8.8100
    -8.7760  -8.7517  -8.6916  -8.6681  -8.6615  -8.6306  -8.6223  -8.5720
    -5.2855  -5.2820  -5.2756  -5.2255  -5.2147  -5.2064  -5.2018  -5.1900
    -5.1882  -5.1315  -5.1256  -5.1214  -5.1139  -5.0993  -5.0921  -5.0507
    -5.0456  -5.0432  -5.0413  -5.0144  -5.0086  -4.9896  -4.9774  -4.9674
    -4.2019  -4.0042  -3.9435  -3.7557  -3.6435  -3.4427  -3.3825  -3.1752
    -0.6673  -0.5786  -0.5326  -0.5012  -0.3694  -0.2704  -0.2086  -0.1366
    -0.0670  -0.0018   0.0499   0.2145   0.3339   0.4082   0.4545   0.4822
     0.5385   0.5567   0.5899   0.6325   0.6481   0.6931   0.7055   0.7545
     0.8136   0.8666   0.8981   0.9203   0.9854   1.0214   1.0490   1.1222
     1.1689   1.1879   1.2086   1.2234   1.2795   1.3091   1.3285   1.3587
     1.3966   1.4299   1.4631   1.4702   1.5221   1.5277   1.5553   1.5951
     1.6212   1.6387   1.6596   1.6722   1.7046   1.7395   1.7709   1.7855
     1.8150   1.8518   1.8751   1.9002   1.9222   1.9476   1.9719   1.9931
     2.0273   2.0788   2.1030   2.1777   2.2783   2.3765   2.4631   2.5443

          k = 0.3750 0.3750 0.3750 (132612 PWs)   bands (ev):

   -18.5101 -18.4572 -18.4384 -18.3500 -18.3425 -18.3360 -18.3282 -18.3235
   -18.3164 -18.3136 -18.3111 -18.3039 -18.2979 -18.2893 -18.2889 -18.2765
   -18.2725 -18.2659 -18.2645 -18.2622 -18.2586 -18.2562 -18.2524 -18.2480
   -18.2473 -18.2451 -18.2428 -18.2398 -18.2380 -18.2375 -18.2372 -18.2367
   -18.2317 -18.2288 -18.2240 -18.2191 -18.2104 -18.1857 -18.1703 -18.1605
   -18.1561 -18.1530 -18.1482 -18.1441 -18.1413 -18.1388 -18.1359 -18.1263
    -9.3812  -9.2734  -9.2516  -9.2127  -9.1678  -9.1247  -9.0848  -9.0414
    -9.0229  -8.9722  -8.9442  -8.9009  -8.8866  -8.8409  -8.8282  -8.8028
    -8.7635  -8.7489  -8.6959  -8.6735  -8.6677  -8.6391  -8.6267  -8.5729
    -5.2855  -5.2821  -5.2755  -5.2256  -5.2151  -5.2067  -5.2016  -5.1897
    -5.1878  -5.1313  -5.1255  -5.1215  -5.1139  -5.0993  -5.0923  -5.0504
    -5.0454  -5.0430  -5.0413  -5.0144  -5.0085  -4.9898  -4.9777  -4.9669
    -4.0786  -3.9038  -3.8497  -3.7837  -3.6707  -3.5956  -3.5350  -3.3586
    -0.4151  -0.3849  -0.3142  -0.2465  -0.1970  -0.1839  -0.1463  -0.0803
    -0.0198   0.0222   0.0650   0.2221   0.3106   0.3601   0.4102   0.4312
     0.4766   0.4978   0.5107   0.5370   0.5812   0.6163   0.6624   0.6959
     0.8300   0.8948   0.9075   0.9327   0.9794   0.9946   1.0333   1.0610
     1.0834   1.1002   1.1475   1.1673   1.1948   1.2386   1.2803   1.3095
     1.3339   1.3903   1.4130   1.4751   1.5338   1.5524   1.5731   1.6134
     1.6318   1.6695   1.7031   1.7255   1.7385   1.7565   1.7898   1.8112
     1.8320   1.8553   1.8659   1.8823   1.9105   1.9358   1.9481   1.9809
     2.0085   2.0181   2.0619   2.0840   2.1474   2.1958   2.2364   2.2919

          k =-0.1250-0.1250 0.1250 (132670 PWs)   bands (ev):

   -18.5101 -18.4572 -18.4384 -18.3500 -18.3425 -18.3360 -18.3282 -18.3235
   -18.3164 -18.3136 -18.3111 -18.3040 -18.2979 -18.2893 -18.2889 -18.2765
   -18.2725 -18.2659 -18.2645 -18.2622 -18.2586 -18.2562 -18.2524 -18.2480
   -18.2473 -18.2451 -18.2428 -18.2398 -18.2380 -18.2375 -18.2372 -18.2367
   -18.2317 -18.2288 -18.2240 -18.2191 -18.2104 -18.1857 -18.1702 -18.1605
   -18.1561 -18.1530 -18.1482 -18.1441 -18.1413 -18.1388 -18.1359 -18.1263
    -9.4254  -9.2708  -9.2419  -9.2217  -9.1119  -9.0751  -9.0477  -9.0349
    -9.0078  -8.9861  -8.9761  -8.9166  -8.8964  -8.8663  -8.8421  -8.8331
    -8.7726  -8.7612  -8.7062  -8.6922  -8.6509  -8.6230  -8.6155  -8.5494
    -5.2856  -5.2821  -5.2759  -5.2255  -5.2154  -5.2069  -5.2011  -5.1898
    -5.1877  -5.1311  -5.1277  -5.1200  -5.1127  -5.0993  -5.0927  -5.0509
    -5.0453  -5.0430  -5.0414  -5.0151  -5.0087  -4.9895  -4.9771  -4.9671
    -4.4585  -3.9396  -3.9234  -3.9096  -3.3861  -3.3599  -3.3454  -2.7375
    -0.7674  -0.7478  -0.6880  -0.6266  -0.5462  -0.5227  -0.5025  -0.4929
    -0.4595  -0.3664  -0.2640  -0.1766   0.4420   0.4917   0.5066   0.6446
     0.6809   0.7099   0.7424   0.7625   0.7944   0.8783   0.9243   0.9706
     1.0115   1.0393   1.0694   1.0902   1.1211   1.1472   1.1551   1.1847
     1.2042   1.2478   1.2730   1.2868   1.3034   1.3228   1.3334   1.3884
     1.3964   1.4180   1.4356   1.4560   1.4874   1.5004   1.5195   1.5524
     1.5747   1.5966   1.6218   1.6326   1.6605   1.6897   1.7259   1.7376
     1.7651   1.8093   1.8458   1.9306   1.9824   2.0433   2.0930   2.1044
     2.1196   2.1908   2.2258   2.3093   2.6592   2.6742   2.7546   3.1037

          k =-0.1250 0.1250-0.1250 (132670 PWs)   bands (ev):

   -18.5101 -18.4572 -18.4384 -18.3500 -18.3425 -18.3360 -18.3282 -18.3235
   -18.3164 -18.3136 -18.3111 -18.3040 -18.2979 -18.2893 -18.2889 -18.2765
   -18.2725 -18.2659 -18.2645 -18.2622 -18.2586 -18.2562 -18.2524 -18.2480
   -18.2473 -18.2451 -18.2428 -18.2398 -18.2380 -18.2375 -18.2372 -18.2367
   -18.2317 -18.2288 -18.2240 -18.2191 -18.2104 -18.1857 -18.1702 -18.1605
   -18.1561 -18.1530 -18.1482 -18.1441 -18.1413 -18.1388 -18.1359 -18.1263
    -9.4254  -9.2709  -9.2480  -9.2115  -9.1195  -9.0726  -9.0518  -9.0336
    -9.0092  -8.9854  -8.9636  -8.9256  -8.8947  -8.8690  -8.8455  -8.8244
    -8.7767  -8.7617  -8.7064  -8.6907  -8.6502  -8.6234  -8.6154  -8.5496
    -5.2857  -5.2821  -5.2758  -5.2255  -5.2152  -5.2071  -5.2015  -5.1898
    -5.1874  -5.1310  -5.1277  -5.1200  -5.1126  -5.0994  -5.0927  -5.0507
    -5.0452  -5.0430  -5.0416  -5.0152  -5.0086  -4.9895  -4.9772  -4.9670
    -4.4586  -3.9583  -3.9179  -3.8938  -3.4064  -3.3594  -3.3275  -2.7384
    -0.7664  -0.7279  -0.6947  -0.6186  -0.5714  -0.5516  -0.5016  -0.4798
    -0.4437  -0.3756  -0.2579  -0.1699   0.4432   0.4868   0.5066   0.6461
     0.6880   0.7091   0.7272   0.7696   0.7905   0.8858   0.9447   0.9732
     0.9982   1.0230   1.0802   1.1049   1.1184   1.1333   1.1607   1.1930
     1.2116   1.2329   1.2495   1.2799   1.3112   1.3215   1.3435   1.3757
     1.4102   1.4241   1.4475   1.4583   1.4796   1.4929   1.5194   1.5441
     1.5806   1.6001   1.6209   1.6327   1.6566   1.6897   1.7181   1.7433
     1.7708   1.7882   1.8505   1.9368   1.9829   2.0482   2.0789   2.1126
     2.1284   2.1867   2.2425   2.3078   2.6396   2.6959   2.7340   3.1082

          k = 0.1250-0.1250-0.1250 (132670 PWs)   bands (ev):

   -18.5101 -18.4572 -18.4384 -18.3500 -18.3425 -18.3360 -18.3282 -18.3235
   -18.3164 -18.3136 -18.3111 -18.3040 -18.2979 -18.2893 -18.2889 -18.2765
   -18.2725 -18.2659 -18.2645 -18.2622 -18.2586 -18.2562 -18.2524 -18.2480
   -18.2473 -18.2451 -18.2428 -18.2398 -18.2380 -18.2375 -18.2372 -18.2367
   -18.2317 -18.2288 -18.2240 -18.2191 -18.2104 -18.1857 -18.1702 -18.1605
   -18.1561 -18.1530 -18.1482 -18.1441 -18.1413 -18.1388 -18.1359 -18.1263
    -9.4254  -9.2718  -9.2417  -9.2203  -9.1029  -9.0852  -9.0533  -9.0381
    -9.0038  -8.9849  -8.9671  -8.9208  -8.8962  -8.8674  -8.8419  -8.8277
    -8.7861  -8.7554  -8.7003  -8.6942  -8.6529  -8.6233  -8.6142  -8.5498
    -5.2857  -5.2821  -5.2758  -5.2256  -5.2154  -5.2069  -5.2011  -5.1898
    -5.1877  -5.1310  -5.1277  -5.1202  -5.1129  -5.0992  -5.0924  -5.0509
    -5.0454  -5.0427  -5.0416  -5.0152  -5.0087  -4.9896  -4.9770  -4.9670
    -4.4584  -3.9500  -3.9212  -3.9006  -3.3972  -3.3641  -3.3307  -2.7377
    -0.7726  -0.7250  -0.7007  -0.6277  -0.5736  -0.5326  -0.5017  -0.4717
    -0.4388  -0.3835  -0.2672  -0.1606   0.4404   0.4836   0.5112   0.6486
     0.6793   0.7096   0.7323   0.7612   0.7936   0.9007   0.9412   0.9751
     0.9972   1.0207   1.0577   1.0884   1.1193   1.1486   1.1591   1.1990
     1.2316   1.2410   1.2722   1.2821   1.2928   1.3031   1.3456   1.3788
     1.3967   1.4170   1.4351   1.4520   1.4703   1.5023   1.5416   1.5665
     1.5758   1.5965   1.6111   1.6338   1.6581   1.6871   1.7126   1.7415
     1.7747   1.7966   1.8634   1.9013   1.9992   2.0470   2.0887   2.1052
     2.1304   2.1898   2.2418   2.3103   2.6102   2.7152   2.7451   3.1104

          k =-0.1250-0.1250 0.3750 (132608 PWs)   bands (ev):

   -18.5101 -18.4572 -18.4384 -18.3500 -18.3425 -18.3360 -18.3282 -18.3235
   -18.3164 -18.3136 -18.3111 -18.3040 -18.2979 -18.2893 -18.2889 -18.2765
   -18.2725 -18.2659 -18.2645 -18.2622 -18.2586 -18.2562 -18.2524 -18.2480
   -18.2473 -18.2451 -18.2428 -18.2398 -18.2380 -18.2375 -18.2372 -18.2367
   -18.2317 -18.2288 -18.2240 -18.2191 -18.2104 -18.1857 -18.1702 -18.1605
   -18.1561 -18.1530 -18.1482 -18.1441 -18.1413 -18.1388 -18.1359 -18.1263
    -9.4059  -9.2941  -9.2481  -9.2012  -9.1351  -9.0982  -9.0510  -9.0316
    -9.0027  -8.9863  -8.9551  -8.9136  -8.8968  -8.8643  -8.8469  -8.8292
    -8.7720  -8.7559  -8.6962  -8.6734  -8.6581  -8.6280  -8.6179  -8.5633
    -5.2857  -5.2819  -5.2758  -5.2254  -5.2148  -5.2062  -5.2013  -5.1899
    -5.1884  -5.1310  -5.1273  -5.1202  -5.1126  -5.0995  -5.0935  -5.0509
    -5.0456  -5.0431  -5.0413  -5.0144  -5.0086  -4.9897  -4.9773  -4.9672
    -4.3294  -4.1071  -3.7995  -3.7852  -3.5651  -3.5447  -3.2095  -2.9657
    -0.7383  -0.6649  -0.6282  -0.5673  -0.5296  -0.5156  -0.4374  -0.3870
    -0.1693  -0.0397  -0.0034   0.1090   0.4100   0.4563   0.5186   0.5338
     0.5618   0.6040   0.6462   0.6699   0.7109   0.7377   0.7859   0.8049
     0.8842   0.9284   1.0223   1.0396   1.0659   1.1016   1.1250   1.1410
     1.1914   1.2192   1.2574   1.2659   1.3218   1.3298   1.3543   1.3777
     1.3955   1.4146   1.4422   1.4623   1.4928   1.5269   1.5571   1.5907
     1.6060   1.6177   1.6327   1.6711   1.6826   1.7061   1.7392   1.7658
     1.8066   1.8352   1.8635   1.8955   1.9438   1.9850   2.0059   2.0505
     2.0794   2.1343   2.2101   2.2603   2.3926   2.4252   2.7257   2.8405

          k =-0.1250 0.1250-0.3750 (132608 PWs)   bands (ev):

   -18.5101 -18.4572 -18.4384 -18.3500 -18.3425 -18.3360 -18.3282 -18.3235
   -18.3164 -18.3136 -18.3111 -18.3040 -18.2979 -18.2893 -18.2889 -18.2765
   -18.2725 -18.2659 -18.2645 -18.2622 -18.2586 -18.2562 -18.2524 -18.2480
   -18.2473 -18.2451 -18.2428 -18.2398 -18.2380 -18.2375 -18.2372 -18.2367
   -18.2317 -18.2288 -18.2240 -18.2191 -18.2104 -18.1857 -18.1702 -18.1605
   -18.1561 -18.1530 -18.1482 -18.1441 -18.1413 -18.1388 -18.1359 -18.1263
    -9.4057  -9.2959  -9.2487  -9.1929  -9.1418  -9.1001  -9.0511  -9.0337
    -8.9996  -8.9857  -8.9459  -8.9243  -8.8935  -8.8685  -8.8426  -8.8281
    -8.7725  -8.7584  -8.6979  -8.6708  -8.6570  -8.6295  -8.6171  -8.5637
    -5.2857  -5.2819  -5.2758  -5.2253  -5.2146  -5.2063  -5.2017  -5.1900
    -5.1881  -5.1309  -5.1272  -5.1204  -5.1125  -5.0997  -5.0934  -5.0508
    -5.0454  -5.0431  -5.0416  -5.0145  -5.0086  -4.9896  -4.9774  -4.9672
    -4.3291  -4.1091  -3.8095  -3.7691  -3.5796  -3.5354  -3.2079  -2.9669
    -0.7223  -0.6756  -0.6233  -0.5825  -0.5398  -0.5067  -0.4410  -0.3720
    -0.1776  -0.0354  -0.0071   0.1063   0.4111   0.4510   0.5128   0.5500
     0.5616   0.6050   0.6466   0.6731   0.7053   0.7410   0.7806   0.8147
     0.8834   0.9329   1.0161   1.0378   1.0577   1.0858   1.1410   1.1679
     1.1861   1.2137   1.2462   1.2777   1.3175   1.3321   1.3540   1.3811
     1.4105   1.4176   1.4205   1.4662   1.4818   1.5187   1.5553   1.5900
     1.6009   1.6185   1.6503   1.6651   1.6838   1.7098   1.7207   1.7601
     1.8073   1.8411   1.8680   1.9011   1.9473   1.9808   2.0019   2.0450
     2.0994   2.1459   2.1739   2.2696   2.4044   2.4324   2.7089   2.8463

          k = 0.1250-0.1250-0.3750 (132608 PWs)   bands (ev):

   -18.5101 -18.4572 -18.4384 -18.3500 -18.3425 -18.3360 -18.3282 -18.3235
   -18.3164 -18.3136 -18.3111 -18.3040 -18.2979 -18.2893 -18.2889 -18.2765
   -18.2725 -18.2659 -18.2645 -18.2622 -18.2586 -18.2562 -18.2524 -18.2480
   -18.2473 -18.2451 -18.2428 -18.2398 -18.2380 -18.2375 -18.2372 -18.2367
   -18.2317 -18.2288 -18.2240 -18.2191 -18.2104 -18.1857 -18.1702 -18.1605
   -18.1561 -18.1530 -18.1482 -18.1441 -18.1413 -18.1388 -18.1359 -18.1263
    -9.4057  -9.2957  -9.2473  -9.1993  -9.1291  -9.1061  -9.0537  -9.0349
    -9.0006  -8.9828  -8.9492  -8.9201  -8.8947  -8.8665  -8.8379  -8.8323
    -8.7819  -8.7518  -8.6939  -8.6722  -8.6599  -8.6292  -8.6160  -8.5640
    -5.2857  -5.2819  -5.2757  -5.2254  -5.2148  -5.2063  -5.2013  -5.1899
    -5.1884  -5.1309  -5.1272  -5.1205  -5.1127  -5.0995  -5.0932  -5.0509
    -5.0455  -5.0430  -5.0415  -5.0145  -5.0087  -4.9897  -4.9773  -4.9672
    -4.3289  -4.1079  -3.8103  -3.7734  -3.5706  -3.5400  -3.2093  -2.9659
    -0.7206  -0.6724  -0.6354  -0.5795  -0.5379  -0.5146  -0.4261  -0.3888
    -0.1666  -0.0393   0.0065   0.1152   0.4004   0.4630   0.5120   0.5298
     0.5567   0.6119   0.6369   0.6573   0.7159   0.7418   0.7923   0.8215
     0.8710   0.9325   1.0036   1.0273   1.0631   1.1126   1.1401   1.1663
     1.1903   1.2239   1.2576   1.2865   1.3107   1.3310   1.3403   1.3671
     1.3957   1.4090   1.4275   1.4648   1.4783   1.5450   1.5561   1.5933
     1.5990   1.6153   1.6379   1.6725   1.6856   1.7094   1.7407   1.7513
     1.7962   1.8379   1.8680   1.9097   1.9412   1.9687   2.0167   2.0401
     2.0931   2.1459   2.2020   2.2580   2.3727   2.4556   2.7263   2.8355

          k = 0.3750-0.1250 0.1250 (132608 PWs)   bands (ev):

   -18.5101 -18.4572 -18.4384 -18.3500 -18.3425 -18.3360 -18.3282 -18.3235
   -18.3164 -18.3136 -18.3111 -18.3039 -18.2979 -18.2893 -18.2889 -18.2765
   -18.2725 -18.2659 -18.2645 -18.2622 -18.2586 -18.2562 -18.2524 -18.2480
   -18.2473 -18.2451 -18.2428 -18.2398 -18.2380 -18.2375 -18.2372 -18.2367
   -18.2317 -18.2288 -18.2240 -18.2191 -18.2104 -18.1857 -18.1702 -18.1605
   -18.1561 -18.1530 -18.1482 -18.1441 -18.1413 -18.1388 -18.1359 -18.1263
    -9.4132  -9.2734  -9.2508  -9.2033  -9.1315  -9.0827  -9.0635  -9.0520
    -9.0222  -8.9824  -8.9585  -8.9210  -8.8997  -8.8576  -8.8257  -8.8012
    -8.7699  -8.7484  -8.7054  -8.6894  -8.6626  -8.6313  -8.6291  -8.5503
    -5.2855  -5.2821  -5.2756  -5.2254  -5.2145  -5.2066  -5.2017  -5.1901
    -5.1880  -5.1309  -5.1275  -5.1199  -5.1127  -5.0996  -5.0925  -5.0508
    -5.0451  -5.0431  -5.0418  -5.0149  -5.0084  -4.9898  -4.9776  -4.9669
    -4.3292  -4.1049  -3.8052  -3.7854  -3.5484  -3.5459  -3.2346  -2.9624
    -0.7325  -0.6920  -0.6389  -0.6032  -0.5128  -0.4338  -0.3773  -0.3376
    -0.1449  -0.0752  -0.0520   0.0755   0.4250   0.4611   0.4953   0.5098
     0.5763   0.6060   0.6360   0.6499   0.7010   0.7388   0.7809   0.7997
     0.8548   0.8946   0.9883   1.0498   1.0817   1.1101   1.1465   1.1856
     1.2137   1.2398   1.2550   1.2724   1.2967   1.3227   1.3392   1.3789
     1.4037   1.4394   1.4574   1.4905   1.4921   1.5272   1.5353   1.5459
     1.5937   1.6109   1.6549   1.6630   1.6759   1.7165   1.7441   1.7516
     1.7805   1.8312   1.8490   1.8748   1.9503   1.9574   2.0038   2.0206
     2.0570   2.1426   2.2292   2.3022   2.4037   2.4994   2.7120   2.8915

          k =-0.3750-0.1250-0.1250 (132608 PWs)   bands (ev):

   -18.5101 -18.4572 -18.4384 -18.3500 -18.3425 -18.3360 -18.3282 -18.3235
   -18.3164 -18.3136 -18.3111 -18.3039 -18.2979 -18.2893 -18.2889 -18.2765
   -18.2725 -18.2659 -18.2645 -18.2622 -18.2586 -18.2562 -18.2524 -18.2480
   -18.2473 -18.2451 -18.2428 -18.2398 -18.2380 -18.2375 -18.2372 -18.2367
   -18.2317 -18.2288 -18.2240 -18.2191 -18.2104 -18.1857 -18.1702 -18.1605
   -18.1561 -18.1530 -18.1482 -18.1441 -18.1413 -18.1388 -18.1359 -18.1263
    -9.4130  -9.2737  -9.2523  -9.2022  -9.1280  -9.0807  -9.0703  -9.0493
    -9.0218  -8.9854  -8.9618  -8.9134  -8.8998  -8.8585  -8.8293  -8.8010
    -8.7671  -8.7481  -8.7019  -8.6957  -8.6618  -8.6325  -8.6267  -8.5506
    -5.2855  -5.2821  -5.2756  -5.2255  -5.2145  -5.2066  -5.2018  -5.1900
    -5.1880  -5.1308  -5.1275  -5.1203  -5.1128  -5.0992  -5.0924  -5.0508
    -5.0454  -5.0430  -5.0417  -5.0150  -5.0084  -4.9898  -4.9775  -4.9670
    -4.3296  -4.1033  -3.8040  -3.7900  -3.5625  -3.5267  -3.2390  -2.9608
    -0.7324  -0.7092  -0.6605  -0.5621  -0.5019  -0.4408  -0.3881  -0.3137
    -0.1472  -0.0835  -0.0588   0.0638   0.4237   0.4615   0.5021   0.5261
     0.5708   0.6058   0.6184   0.6521   0.7070   0.7377   0.7838   0.8040
     0.8699   0.8871   0.9887   1.0415   1.0859   1.1087   1.1474   1.1633
     1.2122   1.2155   1.2554   1.2780   1.3090   1.3355   1.3641   1.3935
     1.4019   1.4327   1.4570   1.4731   1.4908   1.5037   1.5371   1.5505
     1.6021   1.6113   1.6453   1.6691   1.6851   1.7203   1.7489   1.7589
     1.7687   1.8284   1.8572   1.8727   1.9349   1.9696   2.0091   2.0156
     2.0522   2.1450   2.2190   2.2983   2.4322   2.4907   2.7088   2.8886

          k = 0.3750 0.1250-0.1250 (132608 PWs)   bands (ev):

   -18.5101 -18.4572 -18.4384 -18.3500 -18.3425 -18.3360 -18.3282 -18.3235
   -18.3164 -18.3136 -18.3111 -18.3039 -18.2979 -18.2893 -18.2889 -18.2765
   -18.2725 -18.2659 -18.2645 -18.2622 -18.2586 -18.2562 -18.2524 -18.2480
   -18.2473 -18.2451 -18.2428 -18.2398 -18.2380 -18.2375 -18.2372 -18.2367
   -18.2317 -18.2288 -18.2240 -18.2191 -18.2104 -18.1857 -18.1702 -18.1605
   -18.1561 -18.1530 -18.1482 -18.1441 -18.1413 -18.1388 -18.1359 -18.1263
    -9.4133  -9.2719  -9.2490  -9.2114  -9.1237  -9.0830  -9.0604  -9.0529
    -9.0247  -8.9849  -8.9652  -8.9107  -8.9023  -8.8571  -8.8242  -8.8088
    -8.7649  -8.7467  -8.7038  -8.6926  -8.6635  -8.6325  -8.6274  -8.5501
    -5.2854  -5.2822  -5.2756  -5.2255  -5.2147  -5.2064  -5.2013  -5.1901
    -5.1884  -5.1310  -5.1276  -5.1199  -5.1128  -5.0995  -5.0925  -5.0510
    -5.0452  -5.0431  -5.0416  -5.0149  -5.0085  -4.9899  -4.9775  -4.9670
    -4.3296  -4.1012  -3.8123  -3.7869  -3.5493  -3.5352  -3.2410  -2.9602
    -0.7353  -0.7068  -0.6348  -0.5957  -0.5067  -0.4369  -0.3688  -0.3234
    -0.1605  -0.0779  -0.0549   0.0709   0.4260   0.4553   0.5146   0.5294
     0.5792   0.6012   0.6166   0.6534   0.6927   0.7250   0.7720   0.8015
     0.8570   0.8961   1.0027   1.0381   1.0919   1.1027   1.1415   1.1907
     1.2120   1.2487   1.2632   1.2867   1.3003   1.3286   1.3503   1.3627
     1.3825   1.4319   1.4430   1.4795   1.5005   1.5251   1.5456   1.5728
     1.5961   1.6136   1.6261   1.6659   1.6860   1.7152   1.7387   1.7707
     1.7852   1.8222   1.8565   1.8762   1.9169   1.9735   2.0025   2.0257
     2.0462   2.1479   2.2098   2.3040   2.4199   2.4981   2.7193   2.8872

          k =-0.3750 0.1250 0.1250 (132608 PWs)   bands (ev):

   -18.5101 -18.4572 -18.4384 -18.3500 -18.3425 -18.3360 -18.3282 -18.3235
   -18.3164 -18.3136 -18.3111 -18.3039 -18.2979 -18.2893 -18.2889 -18.2765
   -18.2725 -18.2659 -18.2645 -18.2622 -18.2586 -18.2562 -18.2524 -18.2480
   -18.2473 -18.2451 -18.2428 -18.2398 -18.2380 -18.2375 -18.2372 -18.2367
   -18.2317 -18.2288 -18.2240 -18.2191 -18.2104 -18.1857 -18.1702 -18.1605
   -18.1561 -18.1530 -18.1482 -18.1441 -18.1413 -18.1388 -18.1359 -18.1263
    -9.4133  -9.2714  -9.2494  -9.2115  -9.1189  -9.0845  -9.0704  -9.0546
    -9.0186  -8.9839  -8.9571  -8.9167  -8.9034  -8.8581  -8.8243  -8.8013
    -8.7764  -8.7422  -8.6996  -8.6944  -8.6649  -8.6346  -8.6246  -8.5504
    -5.2855  -5.2822  -5.2755  -5.2255  -5.2147  -5.2065  -5.2013  -5.1901
    -5.1883  -5.1309  -5.1276  -5.1201  -5.1130  -5.0992  -5.0922  -5.0509
    -5.0454  -5.0428  -5.0417  -5.0149  -5.0085  -4.9900  -4.9775  -4.9669
    -4.3293  -4.1024  -3.8117  -3.7839  -3.5633  -3.5267  -3.2370  -2.9615
    -0.7361  -0.6904  -0.6623  -0.5765  -0.5056  -0.4486  -0.3700  -0.3361
    -0.1575  -0.0750  -0.0445   0.0852   0.4226   0.4553   0.4884   0.5337
     0.5769   0.6077   0.6205   0.6573   0.6880   0.7313   0.7815   0.7942
     0.8634   0.9027   0.9960   1.0341   1.0820   1.1119   1.1507   1.1869
     1.2157   1.2311   1.2560   1.2717   1.2979   1.3318   1.3554   1.3690
     1.4037   1.4341   1.4535   1.4721   1.4954   1.5203   1.5460   1.5583
     1.5857   1.6018   1.6285   1.6591   1.6958   1.7282   1.7425   1.7669
     1.7776   1.8302   1.8589   1.8629   1.9325   1.9722   1.9989   2.0293
     2.0584   2.1491   2.2262   2.3072   2.4136   2.4824   2.7149   2.8928

          k =-0.1250 0.3750 0.1250 (132608 PWs)   bands (ev):

   -18.5101 -18.4572 -18.4384 -18.3500 -18.3425 -18.3360 -18.3282 -18.3235
   -18.3164 -18.3136 -18.3111 -18.3039 -18.2979 -18.2893 -18.2889 -18.2765
   -18.2725 -18.2659 -18.2645 -18.2622 -18.2586 -18.2562 -18.2524 -18.2480
   -18.2473 -18.2451 -18.2428 -18.2398 -18.2380 -18.2375 -18.2372 -18.2367
   -18.2317 -18.2288 -18.2240 -18.2191 -18.2104 -18.1857 -18.1702 -18.1605
   -18.1561 -18.1530 -18.1482 -18.1441 -18.1413 -18.1388 -18.1359 -18.1263
    -9.4058  -9.3008  -9.2376  -9.1961  -9.1400  -9.1024  -9.0608  -9.0331
    -8.9965  -8.9854  -8.9471  -8.9258  -8.8931  -8.8639  -8.8379  -8.8221
    -8.7865  -8.7411  -8.7025  -8.6859  -8.6567  -8.6303  -8.6124  -8.5608
    -5.2855  -5.2820  -5.2755  -5.2256  -5.2154  -5.2070  -5.2011  -5.1898
    -5.1878  -5.1311  -5.1259  -5.1214  -5.1140  -5.0988  -5.0919  -5.0509
    -5.0456  -5.0426  -5.0415  -5.0152  -5.0088  -4.9897  -4.9772  -4.9672
    -4.3316  -4.0932  -3.8012  -3.7881  -3.5787  -3.5387  -3.2174  -2.9694
    -0.7401  -0.6895  -0.5847  -0.5537  -0.5196  -0.4856  -0.4439  -0.3263
    -0.1858  -0.1050   0.0043   0.1124   0.3907   0.4771   0.5061   0.5274
     0.5719   0.5917   0.6426   0.6654   0.7031   0.7175   0.7775   0.8159
     0.8841   0.9066   0.9874   1.0182   1.0718   1.1059   1.1520   1.1822
     1.2130   1.2459   1.2654   1.2794   1.3014   1.3261   1.3568   1.3737
     1.4052   1.4265   1.4542   1.4821   1.4885   1.5161   1.5480   1.5685
     1.5841   1.6162   1.6278   1.6534   1.6823   1.7066   1.7432   1.7580
     1.7887   1.8026   1.8360   1.8966   1.9280   1.9712   2.0095   2.0633
     2.0841   2.1419   2.2073   2.3035   2.4017   2.4520   2.7219   2.8401

          k =-0.1250-0.3750-0.1250 (132608 PWs)   bands (ev):

   -18.5101 -18.4572 -18.4384 -18.3500 -18.3425 -18.3360 -18.3282 -18.3235
   -18.3164 -18.3136 -18.3111 -18.3039 -18.2979 -18.2893 -18.2889 -18.2765
   -18.2725 -18.2659 -18.2645 -18.2622 -18.2586 -18.2562 -18.2524 -18.2480
   -18.2473 -18.2451 -18.2428 -18.2398 -18.2380 -18.2375 -18.2372 -18.2367
   -18.2317 -18.2288 -18.2240 -18.2191 -18.2104 -18.1857 -18.1702 -18.1605
   -18.1561 -18.1530 -18.1482 -18.1441 -18.1413 -18.1388 -18.1359 -18.1263
    -9.4056  -9.3010  -9.2403  -9.1917  -9.1432  -9.1006  -9.0614  -9.0260
    -9.0041  -8.9828  -8.9572  -8.9154  -8.8939  -8.8637  -8.8406  -8.8262
    -8.7767  -8.7445  -8.7054  -8.6873  -8.6517  -8.6316  -8.6131  -8.5608
    -5.2855  -5.2820  -5.2756  -5.2256  -5.2153  -5.2071  -5.2015  -5.1898
    -5.1875  -5.1311  -5.1258  -5.1217  -5.1138  -5.0988  -5.0920  -5.0507
    -5.0456  -5.0428  -5.0415  -5.0153  -5.0087  -4.9895  -4.9772  -4.9673
    -4.3320  -4.0922  -3.8208  -3.7670  -3.5842  -3.5333  -3.2207  -2.9682
    -0.7363  -0.6981  -0.5800  -0.5508  -0.5209  -0.4826  -0.4424  -0.3382
    -0.1642  -0.1054  -0.0009   0.0913   0.3890   0.4836   0.5105   0.5298
     0.5617   0.6003   0.6401   0.6708   0.6980   0.7128   0.7877   0.8254
     0.8820   0.9098   0.9699   1.0189   1.0724   1.1151   1.1388   1.1643
     1.2150   1.2465   1.2700   1.2941   1.3089   1.3367   1.3648   1.3751
     1.3977   1.4274   1.4623   1.4743   1.4876   1.5090   1.5209   1.5626
     1.5885   1.6126   1.6440   1.6605   1.6848   1.7154   1.7250   1.7508
     1.7842   1.8294   1.8411   1.8984   1.9252   1.9713   2.0038   2.0732
     2.0834   2.1310   2.2166   2.2581   2.4303   2.4716   2.7086   2.8294

          k = 0.1250 0.3750-0.1250 (132608 PWs)   bands (ev):

   -18.5101 -18.4572 -18.4384 -18.3500 -18.3425 -18.3360 -18.3282 -18.3235
   -18.3164 -18.3136 -18.3111 -18.3039 -18.2979 -18.2893 -18.2889 -18.2765
   -18.2725 -18.2659 -18.2645 -18.2622 -18.2586 -18.2562 -18.2524 -18.2480
   -18.2473 -18.2451 -18.2428 -18.2398 -18.2380 -18.2375 -18.2372 -18.2367
   -18.2317 -18.2288 -18.2240 -18.2191 -18.2104 -18.1857 -18.1702 -18.1605
   -18.1561 -18.1530 -18.1482 -18.1441 -18.1413 -18.1388 -18.1359 -18.1263
    -9.4059  -9.3005  -9.2363  -9.1987  -9.1444  -9.0954  -9.0596  -9.0294
    -9.0000  -8.9840  -8.9607  -8.9165  -8.8935  -8.8632  -8.8369  -8.8289
    -8.7777  -8.7406  -8.7085  -8.6862  -8.6530  -8.6314  -8.6133  -8.5602
    -5.2854  -5.2820  -5.2756  -5.2256  -5.2154  -5.2069  -5.2011  -5.1898
    -5.1878  -5.1312  -5.1260  -5.1212  -5.1138  -5.0989  -5.0922  -5.0509
    -5.0456  -5.0428  -5.0414  -5.0151  -5.0088  -4.9896  -4.9773  -4.9672
    -4.3323  -4.0907  -3.8021  -3.7924  -3.5736  -3.5376  -3.2211  -2.9684
    -0.7334  -0.6918  -0.5978  -0.5470  -0.5144  -0.4856  -0.4427  -0.3450
    -0.1583  -0.0892   0.0051   0.0694   0.3898   0.4579   0.5166   0.5484
     0.5800   0.5983   0.6433   0.6547   0.6920   0.7274   0.7775   0.8137
     0.8749   0.9287   0.9658   1.0257   1.0797   1.1156   1.1381   1.1703
     1.2042   1.2501   1.2613   1.2872   1.3094   1.3231   1.3578   1.3846
     1.3992   1.4350   1.4513   1.4881   1.4949   1.5173   1.5429   1.5634
     1.5872   1.6082   1.6366   1.6550   1.6880   1.7061   1.7247   1.7495
     1.7737   1.8338   1.8608   1.8970   1.9158   1.9695   1.9832   2.0687
     2.0955   2.1289   2.2031   2.2744   2.4328   2.4675   2.7134   2.8351

          k = 0.1250-0.3750 0.1250 (132608 PWs)   bands (ev):

   -18.5101 -18.4572 -18.4384 -18.3500 -18.3425 -18.3360 -18.3282 -18.3235
   -18.3164 -18.3136 -18.3111 -18.3039 -18.2979 -18.2893 -18.2889 -18.2765
   -18.2725 -18.2659 -18.2645 -18.2622 -18.2586 -18.2562 -18.2524 -18.2480
   -18.2473 -18.2451 -18.2428 -18.2398 -18.2380 -18.2375 -18.2372 -18.2367
   -18.2317 -18.2288 -18.2240 -18.2191 -18.2104 -18.1857 -18.1702 -18.1605
   -18.1561 -18.1530 -18.1482 -18.1441 -18.1413 -18.1388 -18.1359 -18.1263
    -9.4060  -9.3000  -9.2371  -9.1972  -9.1455  -9.0962  -9.0635  -9.0258
    -9.0030  -8.9766  -8.9563  -8.9263  -8.8916  -8.8649  -8.8380  -8.8249
    -8.7788  -8.7416  -8.7100  -8.6834  -8.6518  -8.6328  -8.6133  -8.5603
    -5.2855  -5.2820  -5.2756  -5.2255  -5.2153  -5.2071  -5.2015  -5.1898
    -5.1875  -5.1311  -5.1261  -5.1211  -5.1139  -5.0989  -5.0921  -5.0507
    -5.0456  -5.0428  -5.0416  -5.0152  -5.0087  -4.9895  -4.9773  -4.9672
    -4.3318  -4.0930  -3.8166  -3.7686  -3.5903  -3.5304  -3.2177  -2.9700
    -0.7304  -0.6913  -0.5680  -0.5527  -0.5204  -0.5070  -0.4510  -0.3413
    -0.1749  -0.0925   0.0168   0.0882   0.3922   0.4540   0.5130   0.5592
     0.5742   0.5865   0.6474   0.6652   0.7013   0.7216   0.7754   0.8019
     0.8892   0.9206   0.9700   1.0169   1.0743   1.1093   1.1506   1.1706
     1.2011   1.2408   1.2715   1.2904   1.3104   1.3448   1.3491   1.3690
     1.4091   1.4388   1.4459   1.4677   1.4962   1.5164   1.5489   1.5648
     1.5818   1.6044   1.6208   1.6680   1.6905   1.7088   1.7247   1.7625
     1.7685   1.8189   1.8433   1.9084   1.9257   1.9781   1.9923   2.0687
     2.0894   2.1224   2.2296   2.2953   2.4001   2.4615   2.7185   2.8248

          k =-0.1250-0.3750 0.3750 (132616 PWs)   bands (ev):

   -18.5101 -18.4572 -18.4384 -18.3500 -18.3425 -18.3360 -18.3282 -18.3235
   -18.3164 -18.3136 -18.3111 -18.3039 -18.2979 -18.2893 -18.2889 -18.2765
   -18.2725 -18.2659 -18.2645 -18.2622 -18.2586 -18.2562 -18.2524 -18.2480
   -18.2473 -18.2451 -18.2428 -18.2398 -18.2380 -18.2375 -18.2372 -18.2367
   -18.2317 -18.2288 -18.2240 -18.2191 -18.2104 -18.1857 -18.1702 -18.1605
   -18.1561 -18.1530 -18.1482 -18.1441 -18.1413 -18.1388 -18.1359 -18.1263
    -9.3885  -9.2836  -9.2654  -9.2152  -9.1458  -9.1055  -9.0666  -9.0204
    -9.0034  -8.9750  -8.9603  -8.9127  -8.8954  -8.8624  -8.8396  -8.8122
    -8.7769  -8.7479  -8.6916  -8.6728  -8.6591  -8.6276  -8.6258  -8.5711
    -5.2855  -5.2820  -5.2756  -5.2255  -5.2148  -5.2063  -5.2014  -5.1900
    -5.1885  -5.1315  -5.1259  -5.1209  -5.1139  -5.0993  -5.0923  -5.0508
    -5.0456  -5.0432  -5.0412  -5.0143  -5.0087  -4.9897  -4.9775  -4.9673
    -4.2035  -3.9889  -3.9549  -3.7643  -3.6392  -3.4207  -3.4034  -3.1743
    -0.6623  -0.5838  -0.5400  -0.4971  -0.3763  -0.2354  -0.2183  -0.1274
    -0.1078   0.0107   0.0877   0.1656   0.3172   0.4157   0.4559   0.4846
     0.5530   0.5718   0.6059   0.6378   0.6464   0.6929   0.7049   0.7356
     0.7939   0.8751   0.8974   0.9114   0.9823   1.0501   1.0715   1.1031
     1.1522   1.1844   1.2204   1.2263   1.2589   1.2934   1.3317   1.3559
     1.3924   1.4461   1.4557   1.4809   1.5259   1.5428   1.5766   1.5958
     1.6236   1.6334   1.6486   1.6800   1.6950   1.7332   1.7517   1.8044
     1.8271   1.8522   1.8737   1.8910   1.9084   1.9330   1.9683   1.9962
     2.0407   2.0723   2.1224   2.1631   2.2577   2.4009   2.4569   2.5544

          k =-0.1250 0.3750-0.3750 (132616 PWs)   bands (ev):

   -18.5101 -18.4572 -18.4384 -18.3500 -18.3425 -18.3360 -18.3282 -18.3235
   -18.3164 -18.3136 -18.3111 -18.3039 -18.2979 -18.2893 -18.2889 -18.2765
   -18.2725 -18.2659 -18.2645 -18.2622 -18.2586 -18.2562 -18.2524 -18.2480
   -18.2473 -18.2451 -18.2428 -18.2398 -18.2380 -18.2375 -18.2372 -18.2367
   -18.2317 -18.2288 -18.2240 -18.2191 -18.2104 -18.1857 -18.1702 -18.1605
   -18.1561 -18.1530 -18.1482 -18.1441 -18.1413 -18.1388 -18.1359 -18.1263
    -9.3884  -9.2824  -9.2683  -9.2117  -9.1464  -9.1085  -9.0672  -9.0231
    -8.9972  -8.9759  -8.9537  -8.9232  -8.8923  -8.8654  -8.8298  -8.8197
    -8.7739  -8.7502  -8.6948  -8.6679  -8.6587  -8.6292  -8.6255  -8.5714
    -5.2856  -5.2819  -5.2756  -5.2255  -5.2147  -5.2064  -5.2018  -5.1900
    -5.1882  -5.1315  -5.1258  -5.1209  -5.1139  -5.0995  -5.0922  -5.0506
    -5.0455  -5.0432  -5.0414  -5.0144  -5.0086  -4.9897  -4.9775  -4.9673
    -4.2023  -3.9917  -3.9574  -3.7557  -3.6445  -3.4196  -3.4028  -3.1755
    -0.6648  -0.5728  -0.5312  -0.5006  -0.3829  -0.2423  -0.2355  -0.1318
    -0.0980   0.0136   0.0811   0.1777   0.3200   0.4146   0.4539   0.4959
     0.5644   0.5665   0.5950   0.6365   0.6685   0.6928   0.7026   0.7169
     0.8102   0.8577   0.8994   0.9128   0.9860   1.0216   1.0657   1.1328
     1.1486   1.1877   1.2115   1.2321   1.2710   1.3091   1.3306   1.3636
     1.3769   1.4230   1.4695   1.4845   1.5166   1.5283   1.5740   1.5903
     1.6110   1.6365   1.6511   1.6954   1.7064   1.7317   1.7464   1.7909
     1.8284   1.8445   1.8746   1.8880   1.9104   1.9460   1.9691   2.0038
     2.0426   2.0772   2.1047   2.1843   2.2715   2.4001   2.4546   2.5358

          k = 0.1250-0.3750-0.3750 (132616 PWs)   bands (ev):

   -18.5101 -18.4572 -18.4384 -18.3500 -18.3425 -18.3360 -18.3282 -18.3235
   -18.3164 -18.3136 -18.3111 -18.3039 -18.2979 -18.2893 -18.2889 -18.2765
   -18.2725 -18.2659 -18.2645 -18.2622 -18.2586 -18.2562 -18.2524 -18.2480
   -18.2473 -18.2451 -18.2428 -18.2398 -18.2380 -18.2375 -18.2372 -18.2367
   -18.2317 -18.2288 -18.2240 -18.2191 -18.2104 -18.1857 -18.1702 -18.1605
   -18.1561 -18.1530 -18.1482 -18.1441 -18.1413 -18.1388 -18.1359 -18.1263
    -9.3882  -9.2852  -9.2674  -9.2082  -9.1466  -9.1095  -9.0679  -9.0228
    -9.0043  -8.9730  -8.9489  -8.9229  -8.8935  -8.8641  -8.8305  -8.8159
    -8.7824  -8.7479  -8.6882  -8.6718  -8.6615  -8.6305  -8.6218  -8.5720
    -5.2856  -5.2820  -5.2756  -5.2255  -5.2148  -5.2063  -5.2014  -5.1900
    -5.1885  -5.1314  -5.1256  -5.1213  -5.1140  -5.0994  -5.0921  -5.0508
    -5.0455  -5.0430  -5.0413  -5.0143  -5.0087  -4.9898  -4.9774  -4.9673
    -4.2014  -4.0030  -3.9427  -3.7668  -3.6339  -3.4430  -3.3828  -3.1757
    -0.6665  -0.5768  -0.5363  -0.5018  -0.3646  -0.2808  -0.2103  -0.1334
    -0.0687   0.0112   0.0450   0.2273   0.3291   0.4090   0.4565   0.4726
     0.5251   0.5732   0.5856   0.6261   0.6480   0.6758   0.7237   0.7592
     0.8114   0.8661   0.8988   0.9216   0.9840   1.0119   1.0671   1.1237
     1.1660   1.2096   1.2254   1.2278   1.2564   1.3037   1.3198   1.3448
     1.3810   1.4154   1.4555   1.4853   1.5265   1.5553   1.5784   1.5923
     1.6069   1.6327   1.6590   1.6874   1.7117   1.7290   1.7602   1.7867
     1.8122   1.8476   1.8587   1.8941   1.9223   1.9482   1.9742   1.9918
     2.0331   2.0731   2.1100   2.1685   2.3044   2.3657   2.4730   2.5457

          k = 0.3750 0.1250-0.3750 (132616 PWs)   bands (ev):

   -18.5101 -18.4572 -18.4384 -18.3500 -18.3425 -18.3360 -18.3282 -18.3235
   -18.3164 -18.3136 -18.3111 -18.3039 -18.2979 -18.2893 -18.2889 -18.2765
   -18.2725 -18.2659 -18.2645 -18.2622 -18.2586 -18.2562 -18.2524 -18.2480
   -18.2473 -18.2451 -18.2428 -18.2398 -18.2380 -18.2375 -18.2372 -18.2367
   -18.2317 -18.2288 -18.2240 -18.2191 -18.2104 -18.1857 -18.1702 -18.1605
   -18.1561 -18.1530 -18.1482 -18.1441 -18.1413 -18.1388 -18.1359 -18.1263
    -9.3972  -9.2749  -9.2386  -9.2268  -9.1562  -9.1017  -9.0580  -9.0449
    -9.0066  -8.9916  -8.9616  -8.9051  -8.8993  -8.8453  -8.8253  -8.8078
    -8.7631  -8.7545  -8.6969  -8.6759  -8.6696  -8.6372  -8.6219  -8.5649
    -5.2855  -5.2821  -5.2756  -5.2254  -5.2151  -5.2066  -5.2011  -5.1895
    -5.1881  -5.1309  -5.1273  -5.1203  -5.1128  -5.0995  -5.0933  -5.0508
    -5.0455  -5.0433  -5.0414  -5.0144  -5.0086  -4.9899  -4.9776  -4.9668
    -4.2054  -3.9844  -3.9692  -3.7323  -3.6606  -3.4434  -3.3847  -3.1660
    -0.7043  -0.6029  -0.5515  -0.4765  -0.3464  -0.2234  -0.1827  -0.1380
    -0.0712   0.0153   0.0745   0.1593   0.3457   0.4278   0.4539   0.4903
     0.5347   0.5528   0.5637   0.5955   0.6192   0.6766   0.7081   0.7254
     0.8066   0.9002   0.9231   0.9477   1.0025   1.0217   1.0473   1.0995
     1.1380   1.1831   1.1980   1.2478   1.2718   1.2993   1.3314   1.3596
     1.3814   1.3938   1.4516   1.4869   1.5138   1.5505   1.5614   1.5967
     1.6190   1.6423   1.6832   1.6963   1.7196   1.7407   1.7699   1.7847
     1.8114   1.8323   1.8566   1.8909   1.9243   1.9657   1.9707   1.9988
     2.0377   2.0576   2.0908   2.1896   2.2852   2.3978   2.4772   2.5921

          k =-0.3750-0.1250-0.3750 (132616 PWs)   bands (ev):

   -18.5101 -18.4572 -18.4384 -18.3500 -18.3425 -18.3360 -18.3282 -18.3235
   -18.3164 -18.3136 -18.3111 -18.3039 -18.2979 -18.2893 -18.2889 -18.2765
   -18.2725 -18.2659 -18.2645 -18.2622 -18.2586 -18.2562 -18.2524 -18.2480
   -18.2473 -18.2451 -18.2428 -18.2398 -18.2380 -18.2375 -18.2372 -18.2367
   -18.2317 -18.2288 -18.2240 -18.2191 -18.2104 -18.1857 -18.1702 -18.1605
   -18.1561 -18.1530 -18.1482 -18.1441 -18.1413 -18.1388 -18.1359 -18.1263
    -9.3968  -9.2788  -9.2435  -9.2132  -9.1608  -9.1030  -9.0598  -9.0456
    -9.0065  -8.9886  -8.9602  -8.9067  -8.8979  -8.8461  -8.8305  -8.7997
    -8.7648  -8.7564  -8.6989  -8.6760  -8.6662  -8.6397  -8.6194  -8.5657
    -5.2856  -5.2821  -5.2756  -5.2254  -5.2149  -5.2067  -5.2014  -5.1896
    -5.1877  -5.1307  -5.1272  -5.1207  -5.1128  -5.0992  -5.0931  -5.0507
    -5.0456  -5.0431  -5.0415  -5.0145  -5.0085  -4.9898  -4.9776  -4.9669
    -4.2035  -4.0250  -3.9130  -3.7716  -3.6277  -3.4744  -3.3621  -3.1688
    -0.6993  -0.6069  -0.5588  -0.4797  -0.3274  -0.2470  -0.1898  -0.1023
    -0.0424   0.0068   0.0408   0.1440   0.3351   0.4262   0.4652   0.4939
     0.5194   0.5618   0.5839   0.6005   0.6427   0.6604   0.6976   0.7412
     0.8248   0.8749   0.9192   0.9669   0.9886   1.0111   1.0414   1.0703
     1.1340   1.1858   1.1996   1.2576   1.2930   1.3175   1.3245   1.3591
     1.3845   1.4116   1.4495   1.4684   1.4916   1.5445   1.5660   1.6005
     1.6168   1.6545   1.6614   1.6996   1.7230   1.7369   1.7584   1.7985
     1.8161   1.8456   1.8645   1.8986   1.9218   1.9425   1.9634   2.0001
     2.0263   2.0816   2.0988   2.1764   2.3135   2.3996   2.4584   2.5854

          k = 0.3750-0.1250 0.3750 (132616 PWs)   bands (ev):

   -18.5101 -18.4572 -18.4384 -18.3500 -18.3425 -18.3360 -18.3282 -18.3235
   -18.3164 -18.3136 -18.3111 -18.3039 -18.2979 -18.2893 -18.2889 -18.2765
   -18.2725 -18.2659 -18.2645 -18.2622 -18.2586 -18.2562 -18.2524 -18.2480
   -18.2473 -18.2451 -18.2428 -18.2398 -18.2380 -18.2375 -18.2372 -18.2367
   -18.2317 -18.2288 -18.2240 -18.2191 -18.2104 -18.1857 -18.1702 -18.1605
   -18.1561 -18.1530 -18.1482 -18.1441 -18.1413 -18.1388 -18.1359 -18.1263
    -9.3969  -9.2791  -9.2410  -9.2149  -9.1602  -9.1072  -9.0567  -9.0468
    -9.0043  -8.9894  -8.9560  -8.9161  -8.8947  -8.8461  -8.8233  -8.8051
    -8.7640  -8.7576  -8.6995  -8.6743  -8.6662  -8.6387  -8.6215  -8.5652
    -5.2856  -5.2821  -5.2756  -5.2254  -5.2150  -5.2067  -5.2014  -5.1897
    -5.1876  -5.1308  -5.1272  -5.1204  -5.1127  -5.0997  -5.0932  -5.0507
    -5.0453  -5.0433  -5.0416  -5.0145  -5.0085  -4.9899  -4.9777  -4.9668
    -4.2025  -4.0263  -3.9149  -3.7703  -3.6250  -3.4765  -3.3611  -3.1697
    -0.6963  -0.5983  -0.5621  -0.4841  -0.3304  -0.2553  -0.1935  -0.0990
    -0.0428   0.0057   0.0480   0.1462   0.3370   0.4266   0.4599   0.4920
     0.5359   0.5467   0.5732   0.6081   0.6420   0.6781   0.6940   0.7270
     0.8159   0.8824   0.9287   0.9560   0.9993   1.0233   1.0572   1.0667
     1.1334   1.1825   1.2122   1.2504   1.2703   1.3083   1.3289   1.3587
     1.3745   1.4119   1.4434   1.4701   1.5173   1.5406   1.5571   1.5901
     1.6185   1.6559   1.6712   1.7012   1.7268   1.7370   1.7672   1.7948
     1.8138   1.8265   1.8693   1.8946   1.9155   1.9488   1.9726   2.0068
     2.0319   2.0715   2.1045   2.1551   2.3242   2.4025   2.4493   2.5957

          k =-0.3750 0.1250 0.3750 (132616 PWs)   bands (ev):

   -18.5101 -18.4572 -18.4384 -18.3500 -18.3425 -18.3360 -18.3282 -18.3235
   -18.3164 -18.3136 -18.3111 -18.3039 -18.2979 -18.2893 -18.2889 -18.2765
   -18.2725 -18.2659 -18.2645 -18.2622 -18.2586 -18.2562 -18.2524 -18.2480
   -18.2473 -18.2451 -18.2428 -18.2398 -18.2380 -18.2375 -18.2372 -18.2367
   -18.2317 -18.2288 -18.2240 -18.2191 -18.2104 -18.1857 -18.1702 -18.1605
   -18.1561 -18.1530 -18.1482 -18.1441 -18.1413 -18.1388 -18.1359 -18.1263
    -9.3971  -9.2764  -9.2359  -9.2282  -9.1520  -9.1070  -9.0600  -9.0468
    -9.0063  -8.9877  -8.9554  -8.9133  -8.8970  -8.8464  -8.8207  -8.8077
    -8.7725  -8.7484  -8.6971  -8.6756  -8.6694  -8.6387  -8.6199  -8.5655
    -5.2856  -5.2821  -5.2756  -5.2254  -5.2151  -5.2066  -5.2010  -5.1895
    -5.1881  -5.1307  -5.1273  -5.1207  -5.1129  -5.0993  -5.0930  -5.0508
    -5.0456  -5.0430  -5.0415  -5.0144  -5.0086  -4.9900  -4.9776  -4.9668
    -4.2047  -3.9845  -3.9700  -3.7354  -3.6587  -3.4423  -3.3833  -3.1672
    -0.6902  -0.6076  -0.5683  -0.4821  -0.3342  -0.2339  -0.1777  -0.1440
    -0.0637   0.0206   0.0698   0.1820   0.3415   0.4161   0.4517   0.4860
     0.5216   0.5458   0.5720   0.5966   0.6290   0.6819   0.7024   0.7488
     0.8071   0.9002   0.9091   0.9525   0.9943   1.0111   1.0452   1.0899
     1.1532   1.1819   1.2030   1.2440   1.2800   1.3131   1.3327   1.3657
     1.3759   1.3984   1.4493   1.4666   1.5137   1.5344   1.5606   1.5919
     1.6128   1.6626   1.6738   1.6918   1.7129   1.7511   1.7548   1.7856
     1.8225   1.8435   1.8628   1.8921   1.9184   1.9527   1.9807   1.9929
     2.0427   2.0649   2.0900   2.1974   2.2917   2.4127   2.4616   2.5844

          k = 0.3750-0.3750 0.1250 (132616 PWs)   bands (ev):

   -18.5101 -18.4572 -18.4384 -18.3500 -18.3425 -18.3360 -18.3282 -18.3235
   -18.3164 -18.3136 -18.3111 -18.3039 -18.2979 -18.2893 -18.2889 -18.2765
   -18.2725 -18.2659 -18.2645 -18.2622 -18.2586 -18.2562 -18.2524 -18.2480
   -18.2473 -18.2451 -18.2428 -18.2398 -18.2380 -18.2375 -18.2372 -18.2367
   -18.2317 -18.2288 -18.2240 -18.2191 -18.2104 -18.1857 -18.1703 -18.1605
   -18.1561 -18.1530 -18.1482 -18.1441 -18.1413 -18.1388 -18.1359 -18.1263
    -9.3952  -9.2868  -9.2532  -9.1911  -9.1476  -9.1014  -9.0832  -9.0560
    -9.0096  -8.9893  -8.9384  -8.9191  -8.8878  -8.8479  -8.8242  -8.8101
    -8.7632  -8.7437  -8.7044  -8.6842  -8.6636  -8.6373  -8.6266  -8.5607
    -5.2854  -5.2821  -5.2754  -5.2256  -5.2146  -5.2066  -5.2018  -5.1901
    -5.1881  -5.1311  -5.1258  -5.1211  -5.1138  -5.0990  -5.0921  -5.0508
    -5.0454  -5.0426  -5.0416  -5.0149  -5.0084  -4.9898  -4.9778  -4.9670
    -4.2018  -4.0080  -3.9344  -3.7347  -3.6588  -3.4773  -3.3718  -3.1703
    -0.6884  -0.5972  -0.5129  -0.4631  -0.3033  -0.2482  -0.2085  -0.1319
    -0.0714  -0.0244   0.0777   0.1684   0.3327   0.4161   0.4616   0.4738
     0.5199   0.5477   0.5882   0.6080   0.6336   0.6578   0.7000   0.7572
     0.7875   0.8538   0.9324   0.9745   1.0034   1.0272   1.0685   1.1124
     1.1423   1.1806   1.1982   1.2320   1.2615   1.3010   1.3301   1.3527
     1.3772   1.4047   1.4433   1.4791   1.5151   1.5475   1.5704   1.5920
     1.6134   1.6410   1.6574   1.7033   1.7174   1.7294   1.7538   1.7833
     1.7951   1.8407   1.8650   1.8947   1.9165   1.9381   1.9699   2.0053
     2.0207   2.0593   2.1364   2.1668   2.2504   2.4204   2.5161   2.6142

          k =-0.3750-0.3750-0.1250 (132616 PWs)   bands (ev):

   -18.5101 -18.4572 -18.4384 -18.3500 -18.3425 -18.3360 -18.3282 -18.3235
   -18.3164 -18.3136 -18.3111 -18.3039 -18.2979 -18.2893 -18.2889 -18.2765
   -18.2725 -18.2659 -18.2645 -18.2622 -18.2586 -18.2562 -18.2524 -18.2480
   -18.2473 -18.2451 -18.2428 -18.2398 -18.2380 -18.2375 -18.2372 -18.2367
   -18.2317 -18.2288 -18.2240 -18.2191 -18.2104 -18.1857 -18.1703 -18.1605
   -18.1561 -18.1530 -18.1482 -18.1441 -18.1413 -18.1388 -18.1359 -18.1263
    -9.3949  -9.2878  -9.2538  -9.1913  -9.1401  -9.1091  -9.0808  -9.0565
    -9.0101  -8.9878  -8.9487  -8.9065  -8.8888  -8.8499  -8.8259  -8.8115
    -8.7581  -8.7452  -8.7011  -8.6913  -8.6621  -8.6371  -8.6253  -8.5611
    -5.2854  -5.2821  -5.2755  -5.2256  -5.2146  -5.2067  -5.2018  -5.1901
    -5.1881  -5.1311  -5.1256  -5.1217  -5.1138  -5.0987  -5.0919  -5.0508
    -5.0457  -5.0426  -5.0415  -5.0149  -5.0084  -4.9898  -4.9777  -4.9670
    -4.2039  -3.9832  -3.9597  -3.7349  -3.6613  -3.4421  -3.4066  -3.1654
    -0.6931  -0.6127  -0.4996  -0.4486  -0.3382  -0.2215  -0.1633  -0.1556
    -0.0624  -0.0011   0.0502   0.1160   0.3269   0.4403   0.4561   0.4788
     0.5360   0.5532   0.5691   0.6152   0.6329   0.6543   0.7150   0.7359
     0.8047   0.8630   0.9227   0.9869   0.9959   1.0238   1.0577   1.0902
     1.1498   1.1770   1.2111   1.2337   1.2571   1.3138   1.3383   1.3549
     1.3782   1.4061   1.4397   1.4773   1.5021   1.5436   1.5604   1.5699
     1.6132   1.6612   1.6840   1.7062   1.7204   1.7340   1.7581   1.7855
     1.8000   1.8304   1.8534   1.8810   1.9101   1.9451   1.9822   1.9981
     2.0206   2.0584   2.1153   2.1842   2.2556   2.4406   2.5007   2.6100

          k = 0.3750 0.3750-0.1250 (132616 PWs)   bands (ev):

   -18.5101 -18.4572 -18.4384 -18.3500 -18.3425 -18.3360 -18.3282 -18.3235
   -18.3164 -18.3136 -18.3111 -18.3039 -18.2979 -18.2893 -18.2889 -18.2765
   -18.2725 -18.2659 -18.2645 -18.2622 -18.2586 -18.2562 -18.2524 -18.2480
   -18.2473 -18.2451 -18.2428 -18.2398 -18.2380 -18.2375 -18.2372 -18.2367
   -18.2317 -18.2288 -18.2240 -18.2191 -18.2104 -18.1857 -18.1703 -18.1605
   -18.1561 -18.1530 -18.1482 -18.1441 -18.1413 -18.1388 -18.1359 -18.1263
    -9.3951  -9.2876  -9.2528  -9.1913  -9.1484  -9.0983  -9.0796  -9.0605
    -9.0102  -8.9905  -8.9468  -8.9081  -8.8883  -8.8488  -8.8203  -8.8162
    -8.7623  -8.7423  -8.7005  -8.6885  -8.6658  -8.6363  -8.6259  -8.5606
    -5.2854  -5.2821  -5.2755  -5.2256  -5.2148  -5.2065  -5.2014  -5.1901
    -5.1884  -5.1311  -5.1258  -5.1212  -5.1138  -5.0989  -5.0921  -5.0510
    -5.0455  -5.0427  -5.0414  -5.0148  -5.0085  -4.9899  -4.9777  -4.9670
    -4.2040  -3.9814  -3.9588  -3.7474  -3.6489  -3.4441  -3.4074  -3.1650
    -0.6942  -0.5972  -0.5125  -0.4642  -0.3332  -0.2051  -0.1679  -0.1565
    -0.0513  -0.0022   0.0461   0.1110   0.3260   0.4248   0.4498   0.4933
     0.5242   0.5647   0.5957   0.6185   0.6271   0.6614   0.6759   0.7364
     0.8018   0.8570   0.9268   0.9876   1.0047   1.0333   1.0592   1.0864
     1.1457   1.1971   1.2216   1.2477   1.2616   1.2892   1.3083   1.3513
     1.3737   1.4055   1.4467   1.4829   1.5239   1.5491   1.5708   1.5835
     1.6126   1.6386   1.6630   1.7032   1.7275   1.7421   1.7547   1.7806
     1.7923   1.8299   1.8655   1.8862   1.9116   1.9292   1.9778   1.9979
     2.0293   2.0523   2.1115   2.1759   2.2620   2.4363   2.4995   2.6273

          k =-0.3750 0.3750 0.1250 (132616 PWs)   bands (ev):

   -18.5101 -18.4572 -18.4384 -18.3500 -18.3425 -18.3360 -18.3282 -18.3235
   -18.3164 -18.3136 -18.3111 -18.3039 -18.2979 -18.2893 -18.2889 -18.2765
   -18.2725 -18.2659 -18.2645 -18.2622 -18.2586 -18.2562 -18.2524 -18.2480
   -18.2473 -18.2451 -18.2428 -18.2398 -18.2380 -18.2375 -18.2372 -18.2367
   -18.2317 -18.2288 -18.2240 -18.2191 -18.2104 -18.1857 -18.1703 -18.1605
   -18.1561 -18.1530 -18.1482 -18.1441 -18.1413 -18.1388 -18.1359 -18.1263
    -9.3952  -9.2880  -9.2504  -9.1974  -9.1342  -9.1108  -9.0784  -9.0637
    -9.0085  -8.9883  -8.9351  -8.9179  -8.8909  -8.8495  -8.8232  -8.8054
    -8.7730  -8.7389  -8.6966  -8.6884  -8.6687  -8.6376  -8.6235  -8.5611
    -5.2854  -5.2821  -5.2754  -5.2256  -5.2148  -5.2066  -5.2014  -5.1902
    -5.1884  -5.1311  -5.1257  -5.1215  -5.1139  -5.0988  -5.0918  -5.0509
    -5.0456  -5.0424  -5.0415  -5.0149  -5.0085  -4.9900  -4.9776  -4.9669
    -4.2022  -4.0059  -3.9316  -3.7505  -3.6472  -3.4779  -3.3716  -3.1700
    -0.6976  -0.6019  -0.5023  -0.4584  -0.2981  -0.2412  -0.2205  -0.1299
    -0.0730  -0.0200   0.0620   0.1891   0.3276   0.4132   0.4576   0.4727
     0.5212   0.5657   0.5785   0.6051   0.6225   0.6533   0.7038   0.7562
     0.7963   0.8668   0.9244   0.9705   0.9845   1.0255   1.0709   1.1123
     1.1536   1.1814   1.2120   1.2400   1.2809   1.2865   1.3156   1.3430
     1.3723   1.3986   1.4649   1.4767   1.5114   1.5350   1.5696   1.5883
     1.6019   1.6500   1.6694   1.6973   1.7231   1.7381   1.7486   1.7707
     1.8056   1.8412   1.8765   1.8886   1.8967   1.9536   1.9742   1.9980
     2.0328   2.0545   2.1464   2.1564   2.2555   2.3958   2.5246   2.6277

          k =-0.3750-0.3750 0.3750 (132612 PWs)   bands (ev):

   -18.5101 -18.4572 -18.4384 -18.3500 -18.3425 -18.3360 -18.3282 -18.3235
   -18.3164 -18.3136 -18.3111 -18.3039 -18.2979 -18.2893 -18.2889 -18.2765
   -18.2725 -18.2659 -18.2645 -18.2622 -18.2586 -18.2562 -18.2524 -18.2480
   -18.2473 -18.2451 -18.2428 -18.2398 -18.2380 -18.2375 -18.2372 -18.2367
   -18.2317 -18.2288 -18.2240 -18.2191 -18.2104 -18.1857 -18.1703 -18.1605
   -18.1561 -18.1530 -18.1482 -18.1441 -18.1413 -18.1388 -18.1359 -18.1263
    -9.3814  -9.2733  -9.2480  -9.2167  -9.1706  -9.1199  -9.0852  -9.0403
    -9.0246  -8.9747  -8.9424  -8.9018  -8.8865  -8.8400  -8.8251  -8.8051
    -8.7679  -8.7454  -8.6919  -8.6768  -8.6693  -8.6357  -8.6299  -8.5721
    -5.2855  -5.2822  -5.2755  -5.2256  -5.2152  -5.2066  -5.2012  -5.1897
    -5.1882  -5.1314  -5.1256  -5.1209  -5.1139  -5.0995  -5.0925  -5.0506
    -5.0451  -5.0432  -5.0412  -5.0143  -5.0086  -4.9899  -4.9777  -4.9669
    -4.0802  -3.8763  -3.8526  -3.8265  -3.6339  -3.5921  -3.5580  -3.3559
    -0.4203  -0.3849  -0.3028  -0.2616  -0.1954  -0.1664  -0.1460  -0.0848
    -0.0338   0.0179   0.1040   0.2047   0.2917   0.3582   0.3939   0.4146
     0.4848   0.5107   0.5352   0.5472   0.6027   0.6221   0.6276   0.6844
     0.8123   0.8898   0.9065   0.9513   0.9943   1.0216   1.0313   1.0546
     1.0901   1.1122   1.1434   1.1683   1.1909   1.2107   1.2415   1.3163
     1.3565   1.3678   1.4190   1.4974   1.5489   1.5592   1.5977   1.6162
     1.6239   1.6525   1.6859   1.7124   1.7447   1.7683   1.7930   1.8119
     1.8249   1.8507   1.8593   1.8834   1.9154   1.9333   1.9495   1.9843
     2.0110   2.0172   2.0579   2.0895   2.0984   2.1891   2.2429   2.3320

          k =-0.3750 0.3750-0.3750 (132612 PWs)   bands (ev):

   -18.5101 -18.4572 -18.4384 -18.3500 -18.3425 -18.3360 -18.3282 -18.3235
   -18.3164 -18.3136 -18.3111 -18.3039 -18.2979 -18.2893 -18.2889 -18.2765
   -18.2725 -18.2659 -18.2645 -18.2622 -18.2586 -18.2562 -18.2524 -18.2480
   -18.2473 -18.2451 -18.2428 -18.2398 -18.2380 -18.2375 -18.2372 -18.2367
   -18.2317 -18.2288 -18.2240 -18.2191 -18.2104 -18.1857 -18.1703 -18.1605
   -18.1561 -18.1530 -18.1482 -18.1441 -18.1413 -18.1388 -18.1359 -18.1263
    -9.3814  -9.2711  -9.2549  -9.2079  -9.1721  -9.1262  -9.0835  -9.0416
    -9.0215  -8.9745  -8.9330  -8.9163  -8.8829  -8.8400  -8.8198  -8.8098
    -8.7637  -8.7493  -8.6970  -8.6710  -8.6679  -8.6354  -8.6318  -8.5723
    -5.2855  -5.2821  -5.2755  -5.2256  -5.2151  -5.2067  -5.2015  -5.1898
    -5.1878  -5.1314  -5.1256  -5.1209  -5.1139  -5.0996  -5.0924  -5.0504
    -5.0450  -5.0431  -5.0415  -5.0144  -5.0085  -4.9898  -4.9778  -4.9668
    -4.0748  -3.9182  -3.8471  -3.7741  -3.6678  -3.6000  -3.5342  -3.3597
    -0.4086  -0.3609  -0.3009  -0.2614  -0.2433  -0.1903  -0.1507  -0.0684
    -0.0305   0.0239   0.0939   0.2156   0.3072   0.3655   0.3888   0.4242
     0.4854   0.5103   0.5322   0.5531   0.5915   0.6110   0.6409   0.6809
     0.8161   0.8942   0.9190   0.9428   0.9730   1.0133   1.0267   1.0653
     1.0903   1.1018   1.1560   1.1717   1.1837   1.2472   1.2501   1.2994
     1.3397   1.3754   1.4251   1.4706   1.5361   1.5653   1.5775   1.5869
     1.6451   1.6621   1.6936   1.7319   1.7552   1.7677   1.7897   1.8046
     1.8222   1.8485   1.8660   1.8780   1.9199   1.9293   1.9560   1.9833
     2.0049   2.0170   2.0474   2.0949   2.1471   2.1884   2.2495   2.2933

          k = 0.3750-0.3750-0.3750 (132612 PWs)   bands (ev):

   -18.5101 -18.4572 -18.4384 -18.3500 -18.3425 -18.3360 -18.3282 -18.3235
   -18.3164 -18.3136 -18.3111 -18.3039 -18.2979 -18.2893 -18.2889 -18.2765
   -18.2725 -18.2659 -18.2645 -18.2622 -18.2586 -18.2562 -18.2524 -18.2480
   -18.2473 -18.2451 -18.2428 -18.2398 -18.2380 -18.2375 -18.2372 -18.2367
   -18.2317 -18.2288 -18.2240 -18.2191 -18.2104 -18.1857 -18.1703 -18.1605
   -18.1561 -18.1530 -18.1482 -18.1441 -18.1413 -18.1388 -18.1359 -18.1263
    -9.3813  -9.2751  -9.2468  -9.2170  -9.1624  -9.1308  -9.0827  -9.0426
    -9.0250  -8.9715  -8.9310  -8.9157  -8.8851  -8.8413  -8.8191  -8.8053
    -8.7737  -8.7431  -8.6922  -8.6765  -8.6687  -8.6393  -8.6258  -8.5728
    -5.2855  -5.2822  -5.2755  -5.2256  -5.2152  -5.2066  -5.2012  -5.1897
    -5.1882  -5.1313  -5.1255  -5.1214  -5.1140  -5.0994  -5.0922  -5.0506
    -5.0453  -5.0429  -5.0413  -5.0143  -5.0086  -4.9900  -4.9777  -4.9668
    -4.0772  -3.8948  -3.8555  -3.7998  -3.6574  -3.5991  -3.5310  -3.3609
    -0.4339  -0.3504  -0.3015  -0.2515  -0.2312  -0.2022  -0.1334  -0.0880
    -0.0215   0.0357   0.0804   0.2529   0.2936   0.3640   0.3994   0.4256
     0.4599   0.4966   0.5201   0.5526   0.5796   0.5968   0.6651   0.7044
     0.8181   0.8937   0.9165   0.9280   0.9720   1.0071   1.0219   1.0623
     1.0904   1.1358   1.1548   1.1716   1.2020   1.2163   1.2596   1.2900
     1.3288   1.3928   1.4290   1.4753   1.5313   1.5579   1.5720   1.6066
     1.6342   1.6658   1.6971   1.7242   1.7473   1.7594   1.7870   1.7976
     1.8341   1.8549   1.8757   1.8911   1.9149   1.9239   1.9493   1.9748
     2.0053   2.0226   2.0630   2.0967   2.1260   2.1822   2.2542   2.3061

     highest occupied level (ev):     3.1104

!    total energy              =   -2256.30575829 Ry
     estimated scf accuracy    <          4.3E-11 Ry

     The total energy is the sum of the following terms:
     one-electron contribution =    -989.99652502 Ry
     hartree contribution      =     623.04116492 Ry
     xc contribution           =    -647.50658561 Ry
     ewald contribution        =   -1241.84381258 Ry

     convergence has been achieved in  15 iterations

     Forces acting on atoms (cartesian axes, Ry/au):

     atom    1 type  1   force =     0.00440917   -0.00337541   -0.00063934
     atom    2 type  2   force =    -0.00430440   -0.01054400   -0.00216289
     atom    3 type  3   force =     0.00206540    0.00518898   -0.00202613
     atom    4 type  3   force =    -0.00297970    0.00315728   -0.00646617
     atom    5 type  3   force =     0.00392381   -0.00152790   -0.00639802
     atom    6 type  1   force =    -0.00649390   -0.00507424   -0.00015920
     atom    7 type  2   force =    -0.00581951   -0.01302484   -0.00191995
     atom    8 type  3   force =    -0.00000033    0.00101821    0.00314166
     atom    9 type  3   force =     0.00654974   -0.00032311   -0.00499341
     atom   10 type  3   force =    -0.00242519    0.01043920   -0.00405095
     atom   11 type  1   force =    -0.00230171   -0.00299412    0.00398738
     atom   12 type  2   force =    -0.00330681    0.00539855   -0.00496808
     atom   13 type  3   force =     0.00578166   -0.00049379   -0.00419371
     atom   14 type  3   force =    -0.00827489    0.00868687    0.00168067
     atom   15 type  3   force =    -0.00147559   -0.01065836    0.00107415
     atom   16 type  1   force =    -0.00292866    0.00004362    0.00080304
     atom   17 type  2   force =     0.00066288    0.00798294    0.01026381
     atom   18 type  3   force =    -0.00788528   -0.00237900    0.00763198
     atom   19 type  3   force =     0.00664941   -0.00104494    0.00609968
     atom   20 type  3   force =    -0.00090657   -0.00630333    0.00131480
     atom   21 type  1   force =     0.01397800   -0.00125177   -0.01357827
     atom   22 type  2   force =    -0.00535669    0.01360202    0.00584442
     atom   23 type  3   force =    -0.00647432   -0.00309467    0.00434415
     atom   24 type  3   force =     0.00306452   -0.00203758   -0.00180723
     atom   25 type  3   force =    -0.00681701   -0.00095195   -0.00554178
     atom   26 type  1   force =     0.02019846    0.01568746    0.00223346
     atom   27 type  2   force =     0.01027020    0.00170387   -0.00230709
     atom   28 type  3   force =     0.00044879    0.00901087   -0.00041879
     atom   29 type  3   force =    -0.01605184   -0.01886657   -0.00046216
     atom   30 type  3   force =    -0.01207209   -0.00020672    0.01085209
     atom   31 type  1   force =     0.00212128    0.00157699    0.00064233
     atom   32 type  2   force =     0.00452430    0.00201815    0.01513369
     atom   33 type  3   force =    -0.00394884    0.00569085   -0.00287387
     atom   34 type  3   force =     0.00316066    0.00690441   -0.00446685
     atom   35 type  3   force =    -0.00089816   -0.01081990   -0.00023303
     atom   36 type  1   force =     0.00450976    0.00127345   -0.00111615
     atom   37 type  2   force =    -0.00063611   -0.00255272   -0.01310852
     atom   38 type  3   force =     0.00437917    0.00073820   -0.00226646
     atom   39 type  3   force =     0.00507281    0.00369797    0.00765509
     atom   40 type  3   force =    -0.00041236   -0.00629499    0.00345564

     Total force =     0.071137     Total SCF correction =     0.000030


     Computing stress (Cartesian axis) and pressure

          total   stress  (Ry/bohr**3)                   (kbar)     P=       -7.65
  -0.00004609   0.00000641  -0.00000652           -6.78        0.94       -0.96
   0.00000641  -0.00004745   0.00000023            0.94       -6.98        0.03
  -0.00000652   0.00000023  -0.00006246           -0.96        0.03       -9.19

 
     init_run     :     19.82s CPU     16.98s WALL (       1 calls)
     electrons    :    202.96s CPU    213.51s WALL (       1 calls)
     forces       :      8.73s CPU      3.87s WALL (       1 calls)
     stress       :     31.57s CPU     30.36s WALL (       1 calls)

     Called by init_run:
     wfcinit      :     12.02s CPU     13.94s WALL (       1 calls)
                                       13.94s GPU  (       1 calls)
     potinit      :      4.54s CPU      1.42s WALL (       1 calls)
     hinit0       :      2.70s CPU      0.96s WALL (       1 calls)

     Called by electrons:
     c_bands      :    123.24s CPU    171.90s WALL (      16 calls)
     sum_band     :     21.20s CPU     20.53s WALL (      16 calls)
                                       20.53s GPU  (      16 calls)
     v_of_rho     :     54.13s CPU     16.39s WALL (      16 calls)
     mix_rho      :      6.28s CPU      4.78s WALL (      16 calls)

     Called by c_bands:
     init_us_2    :      2.42s CPU      3.12s WALL (     280 calls)
                                        3.12s GPU  (     280 calls)
     cegterg      :     82.58s CPU    128.47s WALL (     128 calls)

     Called by *egterg:
     cdiaghg      :     14.04s CPU     25.70s WALL (     657 calls)
                                       25.67s GPU  (     657 calls)
     h_psi        :     56.22s CPU     74.58s WALL (     673 calls)
                                       74.14s GPU  (     673 calls)
     g_psi        :      0.00s CPU      0.36s WALL (     537 calls)
                                        0.36s GPU  (     537 calls)

     Called by h_psi:
     h_psi:calbec :      0.25s CPU      9.99s WALL (     673 calls)
                                        9.98s GPU  (     673 calls)
     vloc_psi     :     40.93s CPU     54.68s WALL (     673 calls)
                                       53.75s GPU  (     673 calls)
     add_vuspsi   :      0.35s CPU      9.84s WALL (     673 calls)
                                        9.83s GPU  (     673 calls)

     General routines
     calbec       :      0.25s CPU      0.40s WALL (     713 calls)
     fft          :     25.33s CPU      6.49s WALL (     185 calls)
                                        0.00s GPU  (       6 calls)
     ffts         :      2.54s CPU      0.68s WALL (      16 calls)
     fftw         :      0.69s CPU     63.23s WALL (   10592 calls)
                                       47.27s GPU  (   10592 calls)
 
     Parallel routines
 
     PWSCF        :   4m23.72s CPU   4m25.49s WALL

 
   This run was terminated on:  22:22: 6  22Apr2021            

=------------------------------------------------------------------------------=
   JOB DONE.
=------------------------------------------------------------------------------=
