
     Program PWSCF v.6.7MaX starts on 22Apr2021 at 20:58:35 

     This program is part of the open-source Quantum ESPRESSO suite
     for quantum simulation of materials; please cite
         "P. Giannozzi et al., J. Phys.:Condens. Matter 21 395502 (2009);
         "P. Giannozzi et al., J. Phys.:Condens. Matter 29 465901 (2017);
         "P. Giannozzi et al., J. Chem. Phys. 152 154105 (2020);
          URL http://www.quantum-espresso.org", 
     in publications or presentations arising from this work. More details at
     http://www.quantum-espresso.org/quote

     Parallel version (MPI & OpenMP), running on      16 processor cores
     Number of MPI processes:                 4
     Threads/MPI process:                     4

     MPI processes distributed on     1 nodes
     K-points division:     npool     =       4
     Reading input from ESP_65.pwi
Warning: card &CELL ignored
Warning: card / ignored

     Current dimensions of program PWSCF are:
     Max number of different atomic species (ntypx) = 10
     Max number of k-points (npk) =  40000
     Max angular momentum in pseudopotentials (lmaxx) =  3
     Message from routine read_pp_mesh:
     mesh size missing, using the one in header
     Message from routine read_pp_mesh:
     mesh size missing, using the one in header
     Message from routine read_pp_mesh:
     mesh size missing, using the one in header

     Subspace diagonalization in iterative solution of the eigenvalue problem:
     a serial algorithm will be used

 
     G-vector sticks info
     --------------------
     sticks:   dense  smooth     PW     G-vecs:    dense   smooth      PW
     Sum       12589   12589   3289              1061107  1061107  140905
 
     Using Slab Decomposition
 


     bravais-lattice index     =            0
     lattice parameter (alat)  =      23.7585  a.u.
     unit-cell volume          =   13410.8736 (a.u.)^3
     number of atoms/cell      =           40
     number of atomic types    =            3
     number of electrons       =       352.00
     number of Kohn-Sham states=          176
     kinetic-energy cutoff     =      70.0000  Ry
     charge density cutoff     =     280.0000  Ry
     scf convergence threshold =      1.0E-10
     mixing beta               =       0.7000
     number of iterations used =            8  plain     mixing
     Exchange-correlation= PBESOL
                           (   1   4  10   8   0   0   0)

     GPU acceleration is ACTIVE.


     celldm(1)=  23.758500  celldm(2)=   0.000000  celldm(3)=   0.000000
     celldm(4)=   0.000000  celldm(5)=   0.000000  celldm(6)=   0.000000

     crystal axes: (cart. coord. in units of alat)
               a(1) = (   1.000000   0.000000   0.000000 )  
               a(2) = (   0.000000   1.000000   0.000000 )  
               a(3) = (   0.000000   0.000000   1.000000 )  

     reciprocal axes: (cart. coord. in units 2 pi/alat)
               b(1) = (  1.000000  0.000000  0.000000 )  
               b(2) = (  0.000000  1.000000  0.000000 )  
               b(3) = (  0.000000  0.000000  1.000000 )  


     PseudoPot. # 1 for Cs read from file:
     /m100/home/userexternal/lmonacel/espresso/pseudo/Cs-nc-pbesol.upf
     MD5 check sum: 9d2f2206a14dc5b3b3f3fbfae186bed4
     Pseudo is Norm-conserving + core correction, Zval =  9.0
     Generated using ONCVPSP code by D. R. Hamann
     Using radial grid of 2384 points,  8 beta functions with: 
                l(1) =   0
                l(2) =   0
                l(3) =   1
                l(4) =   1
                l(5) =   2
                l(6) =   2
                l(7) =   3
                l(8) =   3

     PseudoPot. # 2 for Sn read from file:
     /m100/home/userexternal/lmonacel/espresso/pseudo/Sn-nc-pbesol.upf
     MD5 check sum: c2995d571af40102bfea7461443d92cf
     Pseudo is Norm-conserving + core correction, Zval = 14.0
     Generated using ONCVPSP code by D. R. Hamann
     Using radial grid of 1628 points,  6 beta functions with: 
                l(1) =   0
                l(2) =   0
                l(3) =   1
                l(4) =   1
                l(5) =   2
                l(6) =   2

     PseudoPot. # 3 for I  read from file:
     /m100/home/userexternal/lmonacel/espresso/pseudo/I-nc-pbesol.upf
     MD5 check sum: 80ed5ceb2eb9c553cfb6760a299d9c5b
     Pseudo is Norm-conserving + core correction, Zval =  7.0
     Generated using ONCVPSP code by D. R. Hamann
     Using radial grid of 1182 points,  6 beta functions with: 
                l(1) =   0
                l(2) =   0
                l(3) =   1
                l(4) =   1
                l(5) =   2
                l(6) =   2

     atomic species   valence    mass     pseudopotential
        Cs             9.00   132.90545     Cs( 1.00)
        Sn            14.00   118.71000     Sn( 1.00)
        I              7.00   126.90447     I ( 1.00)

     No symmetry found



   Cartesian axes

     site n.     atom                  positions (alat units)
         1           Cs  tau(   1) = (   0.2190200   0.2393803   0.2246553  )
         2           Sn  tau(   2) = (  -0.0031869   0.0248335  -0.0041261  )
         3           I   tau(   3) = (   0.2458237  -0.0269898  -0.0093521  )
         4           I   tau(   4) = (  -0.0235246   0.0282887   0.2550738  )
         5           I   tau(   5) = (   0.0338274   0.2654186  -0.0354843  )
         6           Cs  tau(   6) = (   0.2334135   0.2609283   0.7438421  )
         7           Sn  tau(   7) = (   0.0055322   0.0136488   0.4993540  )
         8           I   tau(   8) = (   0.2404031   0.0023050   0.5082353  )
         9           I   tau(   9) = (   0.0013384   0.0160035   0.7672895  )
        10           I   tau(  10) = (  -0.0340541   0.2600539   0.5063129  )
        11           Cs  tau(  11) = (   0.2600283   0.7267681   0.2583032  )
        12           Sn  tau(  12) = (  -0.0070878   0.4975794  -0.0236152  )
        13           I   tau(  13) = (   0.2456755   0.5202492   0.0192105  )
        14           I   tau(  14) = (   0.0061042   0.4859188   0.2230332  )
        15           I   tau(  15) = (  -0.0195380   0.7582938   0.0316607  )
        16           Cs  tau(  16) = (   0.2532168   0.7441616   0.7589967  )
        17           Sn  tau(  17) = (   0.0066406   0.5158605   0.4816670  )
        18           I   tau(  18) = (   0.2602653   0.4907796   0.4969007  )
        19           I   tau(  19) = (   0.0045321   0.5086042   0.7363726  )
        20           I   tau(  20) = (   0.0437952   0.7596980   0.4991629  )
        21           Cs  tau(  21) = (   0.7393666   0.2563035   0.2435577  )
        22           Sn  tau(  22) = (   0.5088614  -0.0138467  -0.0065388  )
        23           I   tau(  23) = (   0.7494166   0.0211167   0.0106267  )
        24           I   tau(  24) = (   0.4996468  -0.0047600   0.2663582  )
        25           I   tau(  25) = (   0.5128887   0.2426694  -0.0203551  )
        26           Cs  tau(  26) = (   0.7537616   0.2587553   0.7189011  )
        27           Sn  tau(  27) = (   0.4977659  -0.0128596   0.4883709  )
        28           I   tau(  28) = (   0.7562015  -0.0223739   0.5133163  )
        29           I   tau(  29) = (   0.4894536   0.0042501   0.7532284  )
        30           I   tau(  30) = (   0.5228837   0.2436798   0.5017659  )
        31           Cs  tau(  31) = (   0.7488797   0.7913484   0.2554598  )
        32           Sn  tau(  32) = (   0.5018202   0.4927807   0.0084998  )
        33           I   tau(  33) = (   0.7426698   0.4760745   0.0045889  )
        34           I   tau(  34) = (   0.4783403   0.4762920   0.2575056  )
        35           I   tau(  35) = (   0.5144292   0.7402669  -0.0215497  )
        36           Cs  tau(  36) = (   0.7490656   0.7078822   0.7800408  )
        37           Sn  tau(  37) = (   0.5073077   0.4942287   0.5116926  )
        38           I   tau(  38) = (   0.7644744   0.5200226   0.5087365  )
        39           I   tau(  39) = (   0.4757314   0.4974094   0.7756320  )
        40           I   tau(  40) = (   0.5179952   0.7404498   0.5105519  )

     number of k points=    32
                       cart. coord. in units 2pi/alat
        k(    1) = (   0.1250000   0.1250000   0.1250000), wk =   0.0625000
        k(    2) = (   0.1250000   0.1250000   0.3750000), wk =   0.0625000
        k(    3) = (   0.1250000   0.3750000   0.3750000), wk =   0.0625000
        k(    4) = (   0.3750000   0.3750000   0.3750000), wk =   0.0625000
        k(    5) = (  -0.1250000  -0.1250000   0.1250000), wk =   0.0625000
        k(    6) = (  -0.1250000   0.1250000  -0.1250000), wk =   0.0625000
        k(    7) = (   0.1250000  -0.1250000  -0.1250000), wk =   0.0625000
        k(    8) = (  -0.1250000  -0.1250000   0.3750000), wk =   0.0625000
        k(    9) = (  -0.1250000   0.1250000  -0.3750000), wk =   0.0625000
        k(   10) = (   0.1250000  -0.1250000  -0.3750000), wk =   0.0625000
        k(   11) = (   0.3750000  -0.1250000   0.1250000), wk =   0.0625000
        k(   12) = (  -0.3750000  -0.1250000  -0.1250000), wk =   0.0625000
        k(   13) = (   0.3750000   0.1250000  -0.1250000), wk =   0.0625000
        k(   14) = (  -0.3750000   0.1250000   0.1250000), wk =   0.0625000
        k(   15) = (  -0.1250000   0.3750000   0.1250000), wk =   0.0625000
        k(   16) = (  -0.1250000  -0.3750000  -0.1250000), wk =   0.0625000
        k(   17) = (   0.1250000   0.3750000  -0.1250000), wk =   0.0625000
        k(   18) = (   0.1250000  -0.3750000   0.1250000), wk =   0.0625000
        k(   19) = (  -0.1250000  -0.3750000   0.3750000), wk =   0.0625000
        k(   20) = (  -0.1250000   0.3750000  -0.3750000), wk =   0.0625000
        k(   21) = (   0.1250000  -0.3750000  -0.3750000), wk =   0.0625000
        k(   22) = (   0.3750000   0.1250000  -0.3750000), wk =   0.0625000
        k(   23) = (  -0.3750000  -0.1250000  -0.3750000), wk =   0.0625000
        k(   24) = (   0.3750000  -0.1250000   0.3750000), wk =   0.0625000
        k(   25) = (  -0.3750000   0.1250000   0.3750000), wk =   0.0625000
        k(   26) = (   0.3750000  -0.3750000   0.1250000), wk =   0.0625000
        k(   27) = (  -0.3750000  -0.3750000  -0.1250000), wk =   0.0625000
        k(   28) = (   0.3750000   0.3750000  -0.1250000), wk =   0.0625000
        k(   29) = (  -0.3750000   0.3750000   0.1250000), wk =   0.0625000
        k(   30) = (  -0.3750000  -0.3750000   0.3750000), wk =   0.0625000
        k(   31) = (  -0.3750000   0.3750000  -0.3750000), wk =   0.0625000
        k(   32) = (   0.3750000  -0.3750000  -0.3750000), wk =   0.0625000

     Dense  grid:  1061107 G-vectors     FFT dimensions: ( 128, 128, 128)

     Estimated max dynamical RAM per process >       6.82 GB

     Estimated total dynamical RAM >      27.27 GB

     Initial potential from superposition of free atoms

     starting charge  351.69472, renormalised to  352.00000
     Starting wfcs are  208 randomized atomic wfcs

     total cpu time spent up to now is       17.6 secs

     Self-consistent Calculation

     iteration #  1     ecut=    70.00 Ry     beta= 0.70
     Davidson diagonalization with overlap
     ethr =  1.00E-02,  avg # of iterations =  2.0

     Threshold (ethr) on eigenvalues was too large:
     Diagonalizing with lowered threshold

     Davidson diagonalization with overlap
     ethr =  2.17E-04,  avg # of iterations =  4.0

     total cpu time spent up to now is       38.5 secs

     total energy              =   -2256.02733749 Ry
     estimated scf accuracy    <       0.66124229 Ry

     iteration #  2     ecut=    70.00 Ry     beta= 0.70
     Davidson diagonalization with overlap
     ethr =  1.88E-04,  avg # of iterations =  3.3

     total cpu time spent up to now is       51.3 secs

     total energy              =   -2256.23430451 Ry
     estimated scf accuracy    <       0.29226536 Ry

     iteration #  3     ecut=    70.00 Ry     beta= 0.70
     Davidson diagonalization with overlap
     ethr =  8.30E-05,  avg # of iterations =  2.8

     total cpu time spent up to now is       63.2 secs

     total energy              =   -2256.29054423 Ry
     estimated scf accuracy    <       0.01566377 Ry

     iteration #  4     ecut=    70.00 Ry     beta= 0.70
     Davidson diagonalization with overlap
     ethr =  4.45E-06,  avg # of iterations =  4.6

     total cpu time spent up to now is       77.2 secs

     total energy              =   -2256.29668071 Ry
     estimated scf accuracy    <       0.00487253 Ry

     iteration #  5     ecut=    70.00 Ry     beta= 0.70
     Davidson diagonalization with overlap
     ethr =  1.38E-06,  avg # of iterations =  3.9

     total cpu time spent up to now is       89.5 secs

     total energy              =   -2256.29759295 Ry
     estimated scf accuracy    <       0.00142033 Ry

     iteration #  6     ecut=    70.00 Ry     beta= 0.70
     Davidson diagonalization with overlap
     ethr =  4.04E-07,  avg # of iterations =  2.9

     total cpu time spent up to now is      101.6 secs

     total energy              =   -2256.29781874 Ry
     estimated scf accuracy    <       0.00016157 Ry

     iteration #  7     ecut=    70.00 Ry     beta= 0.70
     Davidson diagonalization with overlap
     ethr =  4.59E-08,  avg # of iterations =  4.0

     total cpu time spent up to now is      115.4 secs

     total energy              =   -2256.29787473 Ry
     estimated scf accuracy    <       0.00002234 Ry

     iteration #  8     ecut=    70.00 Ry     beta= 0.70
     Davidson diagonalization with overlap
     ethr =  6.35E-09,  avg # of iterations =  4.1

     total cpu time spent up to now is      128.9 secs

     total energy              =   -2256.29788185 Ry
     estimated scf accuracy    <       0.00000423 Ry

     iteration #  9     ecut=    70.00 Ry     beta= 0.70
     Davidson diagonalization with overlap
     ethr =  1.20E-09,  avg # of iterations =  4.0

     total cpu time spent up to now is      142.7 secs

     total energy              =   -2256.29788340 Ry
     estimated scf accuracy    <       0.00000065 Ry

     iteration # 10     ecut=    70.00 Ry     beta= 0.70
     Davidson diagonalization with overlap
     ethr =  1.85E-10,  avg # of iterations =  3.3

     total cpu time spent up to now is      156.7 secs

     total energy              =   -2256.29788361 Ry
     estimated scf accuracy    <       0.00000016 Ry

     iteration # 11     ecut=    70.00 Ry     beta= 0.70
     Davidson diagonalization with overlap
     ethr =  4.68E-11,  avg # of iterations =  4.6

     total cpu time spent up to now is      171.1 secs

     total energy              =   -2256.29788368 Ry
     estimated scf accuracy    <       0.00000002 Ry

     iteration # 12     ecut=    70.00 Ry     beta= 0.70
     Davidson diagonalization with overlap
     ethr =  5.98E-12,  avg # of iterations =  6.8

     total cpu time spent up to now is      189.1 secs

     total energy              =   -2256.29788370 Ry
     estimated scf accuracy    <       0.00000001 Ry

     iteration # 13     ecut=    70.00 Ry     beta= 0.70
     Davidson diagonalization with overlap
     ethr =  3.42E-12,  avg # of iterations =  3.0

     total cpu time spent up to now is      201.3 secs

     total energy              =   -2256.29788370 Ry
     estimated scf accuracy    <          1.1E-09 Ry

     iteration # 14     ecut=    70.00 Ry     beta= 0.70
     Davidson diagonalization with overlap
     ethr =  3.09E-13,  avg # of iterations =  5.4

     total cpu time spent up to now is      217.6 secs

     total energy              =   -2256.29788370 Ry
     estimated scf accuracy    <          2.8E-10 Ry

     iteration # 15     ecut=    70.00 Ry     beta= 0.70
     Davidson diagonalization with overlap
     ethr =  1.00E-13,  avg # of iterations =  3.6

     total cpu time spent up to now is      230.2 secs

     End of self-consistent calculation

          k = 0.1250 0.1250 0.1250 (132670 PWs)   bands (ev):

   -18.4944 -18.4178 -18.4013 -18.3779 -18.3635 -18.3609 -18.3430 -18.3353
   -18.3349 -18.3337 -18.3295 -18.3272 -18.3255 -18.3238 -18.3196 -18.3177
   -18.3133 -18.3057 -18.2465 -18.2432 -18.2390 -18.2333 -18.2304 -18.2266
   -18.2231 -18.2230 -18.2227 -18.2194 -18.2162 -18.2136 -18.2106 -18.2105
   -18.2098 -18.2091 -18.2059 -18.2024 -18.2002 -18.1998 -18.1980 -18.1969
   -18.1956 -18.1850 -18.1751 -18.1478 -18.1458 -18.1323 -18.1296 -18.1224
    -9.5279  -9.4420  -9.2914  -9.2541  -9.1883  -9.1002  -9.0842  -9.0164
    -8.9823  -8.9693  -8.9386  -8.9218  -8.9049  -8.8500  -8.8331  -8.8029
    -8.7617  -8.7389  -8.6887  -8.6011  -8.5670  -8.5470  -8.5051  -8.3455
    -5.2691  -5.2541  -5.2442  -5.2030  -5.1930  -5.1873  -5.1790  -5.1731
    -5.1561  -5.1511  -5.1467  -5.1429  -5.1358  -5.1314  -5.1280  -5.1274
    -5.1203  -5.1160  -5.0969  -5.0923  -5.0856  -5.0832  -5.0783  -5.0681
    -4.4682  -3.9858  -3.9250  -3.9001  -3.4052  -3.3777  -3.3341  -2.7353
    -0.7522  -0.7127  -0.6669  -0.6336  -0.6110  -0.5504  -0.5106  -0.4870
    -0.4018  -0.3622  -0.3137  -0.2506   0.4321   0.4548   0.4922   0.5596
     0.5950   0.6433   0.7534   0.8004   0.8072   0.8807   0.9345   0.9512
     0.9750   1.0156   1.0358   1.0791   1.1097   1.1536   1.1714   1.1843
     1.2292   1.2497   1.2668   1.2825   1.3225   1.3593   1.3679   1.3893
     1.4252   1.4594   1.4707   1.4919   1.5103   1.5407   1.5579   1.5785
     1.5964   1.6277   1.6413   1.6823   1.7061   1.7192   1.7336   1.7534
     1.7872   1.8143   1.8581   2.0109   2.0424   2.0951   2.1342   2.1556
     2.1985   2.2177   2.2666   2.3195   2.6448   2.6797   2.8023   3.1414

          k = 0.1250 0.1250 0.3750 (132608 PWs)   bands (ev):

   -18.4944 -18.4178 -18.4013 -18.3779 -18.3635 -18.3609 -18.3430 -18.3353
   -18.3349 -18.3337 -18.3295 -18.3272 -18.3255 -18.3238 -18.3196 -18.3177
   -18.3133 -18.3057 -18.2465 -18.2432 -18.2390 -18.2333 -18.2304 -18.2266
   -18.2231 -18.2230 -18.2227 -18.2194 -18.2162 -18.2137 -18.2106 -18.2105
   -18.2098 -18.2091 -18.2059 -18.2024 -18.2001 -18.1998 -18.1980 -18.1969
   -18.1956 -18.1850 -18.1751 -18.1478 -18.1458 -18.1323 -18.1296 -18.1224
    -9.5218  -9.4406  -9.2898  -9.2616  -9.1830  -9.1241  -9.0900  -9.0156
    -8.9884  -8.9665  -8.9282  -8.9216  -8.8991  -8.8512  -8.8284  -8.8005
    -8.7557  -8.7399  -8.6779  -8.5958  -8.5740  -8.5535  -8.5095  -8.3458
    -5.2690  -5.2540  -5.2441  -5.2025  -5.1924  -5.1874  -5.1777  -5.1743
    -5.1557  -5.1500  -5.1473  -5.1418  -5.1352  -5.1318  -5.1295  -5.1268
    -5.1208  -5.1168  -5.0971  -5.0923  -5.0859  -5.0833  -5.0782  -5.0686
    -4.3359  -4.1123  -3.8331  -3.7846  -3.5843  -3.5420  -3.2329  -2.9706
    -0.7135  -0.6947  -0.6158  -0.5823  -0.5088  -0.4743  -0.3919  -0.3527
    -0.2008  -0.0860  -0.0461   0.0019   0.4035   0.4444   0.5011   0.5411
     0.5764   0.5931   0.6125   0.6664   0.6864   0.7203   0.7670   0.8067
     0.8408   0.8677   0.9561   0.9908   1.0657   1.1311   1.1493   1.1770
     1.1992   1.2505   1.2772   1.2861   1.3110   1.3379   1.3735   1.4104
     1.4322   1.4701   1.4913   1.5051   1.5210   1.5561   1.5706   1.5842
     1.5968   1.6424   1.6605   1.6876   1.7007   1.7162   1.7324   1.7745
     1.8047   1.8323   1.8612   1.9092   2.0100   2.0434   2.0757   2.1075
     2.1396   2.2019   2.2295   2.3194   2.3965   2.4917   2.7440   2.8638

          k = 0.1250 0.3750 0.3750 (132616 PWs)   bands (ev):

   -18.4944 -18.4178 -18.4013 -18.3779 -18.3635 -18.3609 -18.3430 -18.3353
   -18.3349 -18.3336 -18.3295 -18.3272 -18.3255 -18.3238 -18.3196 -18.3177
   -18.3133 -18.3057 -18.2465 -18.2432 -18.2390 -18.2333 -18.2304 -18.2266
   -18.2231 -18.2230 -18.2227 -18.2194 -18.2162 -18.2136 -18.2106 -18.2105
   -18.2098 -18.2091 -18.2059 -18.2024 -18.2001 -18.1998 -18.1980 -18.1969
   -18.1956 -18.1850 -18.1751 -18.1478 -18.1458 -18.1323 -18.1296 -18.1224
    -9.5178  -9.4379  -9.2945  -9.2496  -9.1843  -9.1341  -9.1107  -9.0274
    -8.9861  -8.9658  -8.9387  -8.9157  -8.8899  -8.8399  -8.8195  -8.7977
    -8.7528  -8.7371  -8.6710  -8.6011  -8.5749  -8.5542  -8.5148  -8.3472
    -5.2690  -5.2539  -5.2439  -5.2025  -5.1927  -5.1870  -5.1784  -5.1739
    -5.1557  -5.1500  -5.1475  -5.1415  -5.1352  -5.1332  -5.1297  -5.1262
    -5.1201  -5.1171  -5.0971  -5.0908  -5.0868  -5.0831  -5.0788  -5.0689
    -4.2166  -4.0271  -3.9569  -3.7651  -3.6488  -3.4367  -3.3968  -3.1671
    -0.6388  -0.6036  -0.5781  -0.5162  -0.3287  -0.2831  -0.2500  -0.1256
    -0.0475  -0.0309   0.0313   0.0972   0.3789   0.4087   0.4280   0.4856
     0.5183   0.5339   0.5694   0.6160   0.6465   0.6840   0.7077   0.7498
     0.8015   0.8554   0.8801   0.9364   1.0043   1.0305   1.0599   1.1167
     1.1605   1.1698   1.1984   1.2305   1.2587   1.2967   1.3446   1.3592
     1.3886   1.4300   1.4727   1.5028   1.5377   1.5762   1.5833   1.6323
     1.6558   1.6676   1.6813   1.7081   1.7161   1.7489   1.8075   1.8272
     1.8491   1.8540   1.8887   1.9115   1.9552   2.0054   2.0278   2.0647
     2.0768   2.1302   2.1695   2.1926   2.3113   2.4384   2.5379   2.6275

          k = 0.3750 0.3750 0.3750 (132612 PWs)   bands (ev):

   -18.4944 -18.4178 -18.4013 -18.3779 -18.3635 -18.3609 -18.3430 -18.3352
   -18.3349 -18.3337 -18.3295 -18.3272 -18.3255 -18.3238 -18.3196 -18.3177
   -18.3133 -18.3057 -18.2465 -18.2432 -18.2390 -18.2333 -18.2304 -18.2266
   -18.2231 -18.2230 -18.2227 -18.2194 -18.2162 -18.2136 -18.2106 -18.2105
   -18.2098 -18.2091 -18.2059 -18.2024 -18.2001 -18.1998 -18.1980 -18.1969
   -18.1956 -18.1850 -18.1751 -18.1478 -18.1458 -18.1323 -18.1296 -18.1224
    -9.5153  -9.4353  -9.2835  -9.2508  -9.1892  -9.1353  -9.1252  -9.0548
    -8.9839  -8.9687  -8.9420  -8.9053  -8.8782  -8.8267  -8.8142  -8.7909
    -8.7643  -8.7279  -8.6690  -8.6010  -8.5786  -8.5590  -8.5154  -8.3479
    -5.2690  -5.2539  -5.2439  -5.2024  -5.1926  -5.1871  -5.1784  -5.1739
    -5.1558  -5.1506  -5.1473  -5.1425  -5.1351  -5.1330  -5.1298  -5.1260
    -5.1210  -5.1148  -5.0977  -5.0908  -5.0863  -5.0835  -5.0786  -5.0684
    -4.1049  -3.9399  -3.8469  -3.8107  -3.6439  -3.6065  -3.5369  -3.3444
    -0.4723  -0.4237  -0.3641  -0.2631  -0.2405  -0.2069  -0.1431  -0.1079
    -0.0291   0.0212   0.0729   0.2249   0.3360   0.3711   0.3941   0.4135
     0.4649   0.4969   0.5312   0.5620   0.5792   0.6305   0.6812   0.7094
     0.8030   0.8469   0.9021   0.9445   0.9813   0.9933   1.0221   1.0555
     1.0929   1.1123   1.1528   1.1735   1.2163   1.2494   1.2899   1.3159
     1.3818   1.4176   1.4521   1.4929   1.5289   1.5629   1.5986   1.6318
     1.6752   1.6967   1.7050   1.7165   1.7334   1.7742   1.7909   1.8273
     1.8309   1.8677   1.8832   1.9253   1.9484   1.9689   2.0094   2.0300
     2.0634   2.0814   2.1035   2.1382   2.1554   2.2036   2.2565   2.3664

          k =-0.1250-0.1250 0.1250 (132670 PWs)   bands (ev):

   -18.4944 -18.4178 -18.4013 -18.3779 -18.3635 -18.3609 -18.3430 -18.3353
   -18.3349 -18.3337 -18.3295 -18.3272 -18.3255 -18.3238 -18.3196 -18.3177
   -18.3133 -18.3057 -18.2465 -18.2432 -18.2390 -18.2333 -18.2304 -18.2266
   -18.2231 -18.2230 -18.2227 -18.2194 -18.2162 -18.2136 -18.2106 -18.2105
   -18.2098 -18.2091 -18.2059 -18.2024 -18.2002 -18.1998 -18.1980 -18.1969
   -18.1956 -18.1850 -18.1751 -18.1478 -18.1458 -18.1323 -18.1296 -18.1224
    -9.5274  -9.4430  -9.2908  -9.2523  -9.1932  -9.1005  -9.0764  -9.0180
    -8.9842  -8.9624  -8.9493  -8.9212  -8.9042  -8.8525  -8.8308  -8.8028
    -8.7603  -8.7359  -8.6924  -8.6001  -8.5667  -8.5473  -8.5054  -8.3455
    -5.2691  -5.2541  -5.2442  -5.2029  -5.1928  -5.1874  -5.1794  -5.1730
    -5.1559  -5.1510  -5.1467  -5.1428  -5.1358  -5.1315  -5.1289  -5.1263
    -5.1213  -5.1149  -5.0970  -5.0924  -5.0856  -5.0830  -5.0782  -5.0682
    -4.4676  -4.0001  -3.9182  -3.8892  -3.4342  -3.3743  -3.3090  -2.7396
    -0.7317  -0.7080  -0.6789  -0.6373  -0.6077  -0.5510  -0.5254  -0.4852
    -0.4011  -0.3646  -0.3121  -0.2523   0.4307   0.4532   0.4954   0.5694
     0.5959   0.6341   0.7612   0.7884   0.8237   0.8873   0.9082   0.9381
     0.9802   1.0124   1.0630   1.1082   1.1227   1.1411   1.1597   1.2000
     1.2070   1.2345   1.2544   1.2819   1.3033   1.3548   1.3701   1.4051
     1.4289   1.4530   1.4783   1.4957   1.5154   1.5307   1.5580   1.5823
     1.5968   1.6165   1.6530   1.6953   1.7082   1.7169   1.7328   1.7486
     1.7822   1.8197   1.8665   2.0125   2.0385   2.0939   2.1257   2.1404
     2.1985   2.2201   2.2862   2.3249   2.6299   2.6866   2.8053   3.1300

          k =-0.1250 0.1250-0.1250 (132670 PWs)   bands (ev):

   -18.4944 -18.4178 -18.4013 -18.3779 -18.3635 -18.3609 -18.3430 -18.3353
   -18.3349 -18.3337 -18.3295 -18.3272 -18.3255 -18.3238 -18.3196 -18.3177
   -18.3133 -18.3057 -18.2465 -18.2432 -18.2390 -18.2333 -18.2304 -18.2266
   -18.2231 -18.2230 -18.2227 -18.2194 -18.2162 -18.2136 -18.2106 -18.2105
   -18.2098 -18.2091 -18.2059 -18.2024 -18.2002 -18.1998 -18.1980 -18.1969
   -18.1956 -18.1850 -18.1751 -18.1478 -18.1458 -18.1323 -18.1296 -18.1224
    -9.5277  -9.4424  -9.2905  -9.2548  -9.1863  -9.1105  -9.0765  -9.0174
    -8.9776  -8.9651  -8.9421  -8.9211  -8.9099  -8.8534  -8.8309  -8.8069
    -8.7512  -8.7391  -8.6933  -8.6015  -8.5666  -8.5476  -8.5045  -8.3455
    -5.2691  -5.2542  -5.2442  -5.2029  -5.1930  -5.1874  -5.1793  -5.1729
    -5.1562  -5.1514  -5.1468  -5.1423  -5.1355  -5.1316  -5.1281  -5.1263
    -5.1212  -5.1161  -5.0968  -5.0922  -5.0863  -5.0833  -5.0778  -5.0680
    -4.4681  -3.9950  -3.9168  -3.8955  -3.4383  -3.3542  -3.3267  -2.7367
    -0.7417  -0.7180  -0.6932  -0.6256  -0.6009  -0.5463  -0.5270  -0.4591
    -0.4159  -0.3636  -0.3024  -0.2574   0.4260   0.4565   0.4958   0.5629
     0.5864   0.6472   0.7697   0.7938   0.8150   0.8760   0.9199   0.9530
     0.9751   1.0224   1.0567   1.0823   1.0917   1.1304   1.1613   1.1919
     1.2257   1.2537   1.2668   1.2906   1.3156   1.3358   1.3541   1.4118
     1.4425   1.4636   1.4780   1.4881   1.5141   1.5344   1.5628   1.5804
     1.5949   1.6284   1.6444   1.6687   1.7031   1.7156   1.7282   1.7648
     1.7893   1.8067   1.8748   2.0236   2.0347   2.0909   2.1312   2.1512
     2.1859   2.2191   2.2747   2.3416   2.6526   2.6620   2.8061   3.1275

          k = 0.1250-0.1250-0.1250 (132670 PWs)   bands (ev):

   -18.4944 -18.4178 -18.4013 -18.3779 -18.3635 -18.3609 -18.3430 -18.3353
   -18.3349 -18.3337 -18.3295 -18.3272 -18.3255 -18.3238 -18.3196 -18.3177
   -18.3133 -18.3057 -18.2465 -18.2432 -18.2390 -18.2333 -18.2304 -18.2266
   -18.2231 -18.2230 -18.2227 -18.2194 -18.2162 -18.2136 -18.2106 -18.2105
   -18.2098 -18.2091 -18.2059 -18.2024 -18.2002 -18.1998 -18.1980 -18.1969
   -18.1956 -18.1850 -18.1751 -18.1478 -18.1458 -18.1323 -18.1296 -18.1224
    -9.5277  -9.4424  -9.2908  -9.2527  -9.1941  -9.0973  -9.0820  -9.0159
    -8.9764  -8.9675  -8.9399  -8.9297  -8.9073  -8.8546  -8.8263  -8.8071
    -8.7534  -8.7431  -8.6889  -8.6007  -8.5662  -8.5479  -8.5054  -8.3454
    -5.2691  -5.2541  -5.2442  -5.2030  -5.1928  -5.1875  -5.1792  -5.1730
    -5.1564  -5.1506  -5.1470  -5.1424  -5.1357  -5.1309  -5.1292  -5.1272
    -5.1210  -5.1150  -5.0969  -5.0920  -5.0862  -5.0834  -5.0779  -5.0680
    -4.4677  -3.9927  -3.9280  -3.8872  -3.4430  -3.3516  -3.3230  -2.7386
    -0.7522  -0.7175  -0.6720  -0.6248  -0.6004  -0.5542  -0.5091  -0.4852
    -0.4000  -0.3765  -0.3080  -0.2546   0.4266   0.4587   0.4939   0.5741
     0.5883   0.6413   0.7674   0.7768   0.8077   0.8765   0.9214   0.9377
     0.9964   1.0306   1.0724   1.0835   1.1209   1.1392   1.1811   1.1943
     1.2129   1.2254   1.2625   1.2914   1.2967   1.3271   1.3618   1.3826
     1.4292   1.4661   1.4790   1.5066   1.5321   1.5359   1.5644   1.5801
     1.5922   1.6210   1.6404   1.6623   1.7040   1.7108   1.7405   1.7680
     1.7859   1.8209   1.8697   1.9965   2.0536   2.0905   2.1304   2.1456
     2.1937   2.2268   2.2837   2.3292   2.6437   2.6658   2.8057   3.1287

          k =-0.1250-0.1250 0.3750 (132608 PWs)   bands (ev):

   -18.4944 -18.4178 -18.4013 -18.3779 -18.3635 -18.3609 -18.3430 -18.3353
   -18.3349 -18.3337 -18.3295 -18.3272 -18.3255 -18.3238 -18.3196 -18.3177
   -18.3133 -18.3057 -18.2465 -18.2432 -18.2390 -18.2333 -18.2304 -18.2266
   -18.2231 -18.2230 -18.2227 -18.2194 -18.2162 -18.2137 -18.2106 -18.2105
   -18.2098 -18.2091 -18.2059 -18.2024 -18.2001 -18.1998 -18.1980 -18.1969
   -18.1956 -18.1850 -18.1751 -18.1478 -18.1458 -18.1323 -18.1296 -18.1224
    -9.5212  -9.4418  -9.2891  -9.2597  -9.1887  -9.1243  -9.0812  -9.0179
    -8.9883  -8.9646  -8.9382  -8.9173  -8.8993  -8.8534  -8.8270  -8.7993
    -8.7556  -8.7366  -8.6812  -8.5946  -8.5734  -8.5541  -8.5098  -8.3458
    -5.2691  -5.2539  -5.2441  -5.2024  -5.1923  -5.1875  -5.1784  -5.1739
    -5.1555  -5.1500  -5.1473  -5.1417  -5.1353  -5.1321  -5.1297  -5.1264
    -5.1219  -5.1157  -5.0972  -5.0924  -5.0859  -5.0832  -5.0782  -5.0687
    -4.3334  -4.1210  -3.8176  -3.7827  -3.5991  -3.5475  -3.2140  -2.9811
    -0.7102  -0.6883  -0.6171  -0.5834  -0.5198  -0.4616  -0.3886  -0.3626
    -0.1815  -0.1037  -0.0680   0.0090   0.4023   0.4585   0.4931   0.5642
     0.5822   0.5877   0.6278   0.6457   0.6939   0.7024   0.7595   0.7956
     0.8503   0.8845   0.9589   0.9849   1.0644   1.1304   1.1372   1.1782
     1.2076   1.2551   1.2716   1.2871   1.3102   1.3305   1.3760   1.4167
     1.4314   1.4568   1.4922   1.5080   1.5151   1.5451   1.5809   1.5927
     1.6152   1.6307   1.6431   1.6841   1.7059   1.7309   1.7469   1.7743
     1.7968   1.8263   1.8735   1.9169   2.0035   2.0371   2.0691   2.0959
     2.1296   2.2105   2.2466   2.3296   2.3856   2.4874   2.7480   2.8588

          k =-0.1250 0.1250-0.3750 (132608 PWs)   bands (ev):

   -18.4944 -18.4178 -18.4013 -18.3779 -18.3635 -18.3609 -18.3430 -18.3353
   -18.3349 -18.3337 -18.3295 -18.3272 -18.3255 -18.3238 -18.3196 -18.3177
   -18.3133 -18.3057 -18.2465 -18.2432 -18.2390 -18.2333 -18.2304 -18.2266
   -18.2231 -18.2230 -18.2227 -18.2194 -18.2162 -18.2137 -18.2106 -18.2105
   -18.2098 -18.2091 -18.2059 -18.2024 -18.2001 -18.1998 -18.1980 -18.1969
   -18.1956 -18.1850 -18.1751 -18.1478 -18.1458 -18.1323 -18.1296 -18.1224
    -9.5216  -9.4413  -9.2882  -9.2624  -9.1803  -9.1340  -9.0822  -9.0188
    -8.9832  -8.9619  -8.9380  -8.9146  -8.9058  -8.8533  -8.8268  -8.8013
    -8.7493  -8.7398  -8.6814  -8.5960  -8.5738  -8.5542  -8.5088  -8.3458
    -5.2691  -5.2540  -5.2441  -5.2024  -5.1925  -5.1875  -5.1781  -5.1739
    -5.1558  -5.1507  -5.1470  -5.1414  -5.1348  -5.1321  -5.1294  -5.1261
    -5.1213  -5.1172  -5.0970  -5.0922  -5.0865  -5.0835  -5.0778  -5.0684
    -4.3351  -4.1160  -3.8289  -3.7769  -3.6021  -3.5377  -3.2256  -2.9734
    -0.7172  -0.6891  -0.6289  -0.5824  -0.5019  -0.4621  -0.3971  -0.3568
    -0.1919  -0.0938  -0.0536   0.0116   0.4016   0.4434   0.4994   0.5585
     0.5652   0.5920   0.6093   0.6715   0.6965   0.7151   0.7616   0.8142
     0.8302   0.8859   0.9346   0.9984   1.0734   1.1196   1.1616   1.1724
     1.1999   1.2190   1.2701   1.2932   1.3039   1.3248   1.3811   1.4122
     1.4526   1.4743   1.4953   1.5202   1.5283   1.5450   1.5660   1.5844
     1.6113   1.6280   1.6462   1.6745   1.6880   1.7234   1.7587   1.7803
     1.8005   1.8269   1.8658   1.9203   1.9966   2.0511   2.0853   2.1016
     2.1206   2.2157   2.2296   2.3270   2.4026   2.4941   2.7435   2.8431

          k = 0.1250-0.1250-0.3750 (132608 PWs)   bands (ev):

   -18.4944 -18.4178 -18.4013 -18.3779 -18.3635 -18.3609 -18.3430 -18.3353
   -18.3349 -18.3337 -18.3295 -18.3272 -18.3255 -18.3238 -18.3196 -18.3177
   -18.3133 -18.3057 -18.2465 -18.2432 -18.2390 -18.2333 -18.2304 -18.2266
   -18.2231 -18.2230 -18.2227 -18.2194 -18.2162 -18.2136 -18.2106 -18.2105
   -18.2098 -18.2091 -18.2059 -18.2024 -18.2001 -18.1998 -18.1980 -18.1969
   -18.1956 -18.1850 -18.1751 -18.1478 -18.1458 -18.1323 -18.1296 -18.1224
    -9.5215  -9.4412  -9.2891  -9.2597  -9.1909  -9.1215  -9.0850  -9.0166
    -8.9822  -8.9640  -8.9368  -8.9217  -8.9035  -8.8546  -8.8220  -8.8014
    -8.7534  -8.7410  -8.6780  -8.5950  -8.5733  -8.5547  -8.5098  -8.3458
    -5.2691  -5.2539  -5.2441  -5.2025  -5.1923  -5.1876  -5.1780  -5.1741
    -5.1560  -5.1497  -5.1474  -5.1414  -5.1351  -5.1313  -5.1304  -5.1271
    -5.1212  -5.1159  -5.0971  -5.0921  -5.0865  -5.0836  -5.0778  -5.0684
    -4.3340  -4.1175  -3.8322  -3.7710  -3.6068  -3.5374  -3.2193  -2.9777
    -0.7190  -0.6900  -0.6098  -0.5948  -0.5111  -0.4546  -0.3919  -0.3569
    -0.1925  -0.0931  -0.0584  -0.0026   0.4023   0.4591   0.4992   0.5453
     0.5764   0.5948   0.6372   0.6521   0.6811   0.7252   0.7499   0.7921
     0.8410   0.8871   0.9626   0.9868   1.0802   1.1371   1.1504   1.1779
     1.2036   1.2148   1.2533   1.2783   1.3101   1.3470   1.3604   1.4201
     1.4501   1.4756   1.5060   1.5153   1.5255   1.5390   1.5607   1.5814
     1.6058   1.6288   1.6523   1.6717   1.7017   1.7179   1.7487   1.7771
     1.8107   1.8357   1.8730   1.9083   2.0136   2.0396   2.0665   2.0950
     2.1476   2.1971   2.2367   2.3376   2.3955   2.4870   2.7371   2.8573

          k = 0.3750-0.1250 0.1250 (132608 PWs)   bands (ev):

   -18.4944 -18.4178 -18.4013 -18.3779 -18.3635 -18.3609 -18.3430 -18.3352
   -18.3349 -18.3337 -18.3295 -18.3272 -18.3255 -18.3238 -18.3196 -18.3177
   -18.3133 -18.3057 -18.2465 -18.2432 -18.2390 -18.2333 -18.2304 -18.2266
   -18.2231 -18.2230 -18.2227 -18.2194 -18.2162 -18.2136 -18.2106 -18.2105
   -18.2098 -18.2091 -18.2059 -18.2024 -18.2002 -18.1998 -18.1980 -18.1969
   -18.1956 -18.1850 -18.1751 -18.1478 -18.1458 -18.1323 -18.1296 -18.1224
    -9.5226  -9.4417  -9.2859  -9.2574  -9.1905  -9.1226  -9.0834  -9.0273
    -8.9814  -8.9614  -8.9396  -8.9166  -8.9064  -8.8523  -8.8214  -8.8068
    -8.7437  -8.7390  -8.6841  -8.5969  -8.5730  -8.5559  -8.5060  -8.3465
    -5.2690  -5.2538  -5.2439  -5.2026  -5.1926  -5.1874  -5.1790  -5.1730
    -5.1560  -5.1505  -5.1474  -5.1418  -5.1354  -5.1318  -5.1290  -5.1261
    -5.1210  -5.1173  -5.0965  -5.0907  -5.0877  -5.0835  -5.0786  -5.0682
    -4.3394  -4.1216  -3.8323  -3.7699  -3.6109  -3.5262  -3.2183  -2.9580
    -0.7180  -0.6762  -0.6541  -0.5911  -0.5539  -0.5140  -0.4361  -0.4007
    -0.1308  -0.0675   0.0170   0.0581   0.3793   0.4327   0.4952   0.5257
     0.5583   0.5825   0.6314   0.6537   0.6981   0.7326   0.7784   0.8239
     0.8561   0.9213   0.9421   1.0188   1.0613   1.0809   1.1415   1.1677
     1.2093   1.2398   1.2800   1.3015   1.3278   1.3364   1.3794   1.3988
     1.4385   1.4592   1.4879   1.5047   1.5370   1.5431   1.5707   1.5879
     1.6018   1.6180   1.6529   1.6823   1.7149   1.7413   1.7659   1.7761
     1.8037   1.8369   1.8761   1.9410   1.9946   2.0180   2.0810   2.1031
     2.1184   2.1689   2.2077   2.2825   2.4337   2.4866   2.7212   2.8569

          k =-0.3750-0.1250-0.1250 (132608 PWs)   bands (ev):

   -18.4944 -18.4178 -18.4013 -18.3779 -18.3635 -18.3609 -18.3430 -18.3352
   -18.3349 -18.3337 -18.3295 -18.3272 -18.3255 -18.3238 -18.3196 -18.3177
   -18.3133 -18.3057 -18.2465 -18.2432 -18.2390 -18.2333 -18.2304 -18.2266
   -18.2231 -18.2230 -18.2227 -18.2194 -18.2162 -18.2136 -18.2106 -18.2105
   -18.2098 -18.2091 -18.2059 -18.2024 -18.2002 -18.1998 -18.1980 -18.1969
   -18.1956 -18.1850 -18.1751 -18.1478 -18.1458 -18.1323 -18.1296 -18.1224
    -9.5226  -9.4416  -9.2873  -9.2527  -9.1968  -9.1190  -9.0845  -9.0229
    -8.9801  -8.9730  -8.9338  -8.9229  -8.8996  -8.8506  -8.8228  -8.8013
    -8.7578  -8.7339  -8.6811  -8.5967  -8.5731  -8.5554  -8.5066  -8.3465
    -5.2689  -5.2538  -5.2439  -5.2028  -5.1926  -5.1872  -5.1787  -5.1733
    -5.1559  -5.1506  -5.1470  -5.1422  -5.1355  -5.1321  -5.1287  -5.1270
    -5.1205  -5.1170  -5.0965  -5.0912  -5.0866  -5.0833  -5.0791  -5.0684
    -4.3393  -4.1214  -3.8225  -3.7886  -3.5845  -3.5430  -3.2211  -2.9563
    -0.7172  -0.6936  -0.6346  -0.5910  -0.5578  -0.4992  -0.4473  -0.3972
    -0.1262  -0.0965   0.0219   0.0690   0.3772   0.4438   0.4917   0.5144
     0.5456   0.6012   0.6235   0.6382   0.7137   0.7370   0.7891   0.8199
     0.8550   0.9103   0.9503   1.0101   1.0482   1.1167   1.1454   1.1747
     1.2203   1.2429   1.2647   1.3047   1.3255   1.3406   1.3767   1.4080
     1.4263   1.4507   1.4764   1.5021   1.5373   1.5423   1.5679   1.5842
     1.6123   1.6205   1.6604   1.6803   1.7082   1.7363   1.7578   1.7892
     1.7999   1.8462   1.8757   1.9317   1.9897   2.0193   2.0744   2.1035
     2.1276   2.1755   2.2062   2.2701   2.4063   2.5221   2.7108   2.8723

          k = 0.3750 0.1250-0.1250 (132608 PWs)   bands (ev):

   -18.4944 -18.4178 -18.4013 -18.3779 -18.3635 -18.3609 -18.3430 -18.3352
   -18.3349 -18.3337 -18.3295 -18.3272 -18.3255 -18.3238 -18.3196 -18.3177
   -18.3133 -18.3057 -18.2465 -18.2432 -18.2390 -18.2333 -18.2304 -18.2266
   -18.2231 -18.2230 -18.2227 -18.2194 -18.2162 -18.2136 -18.2106 -18.2105
   -18.2098 -18.2091 -18.2059 -18.2024 -18.2002 -18.1998 -18.1980 -18.1969
   -18.1956 -18.1850 -18.1751 -18.1478 -18.1458 -18.1323 -18.1296 -18.1224
    -9.5222  -9.4424  -9.2869  -9.2534  -9.1984  -9.1160  -9.0800  -9.0277
    -8.9843  -8.9619  -8.9477  -8.9156  -8.9015  -8.8524  -8.8200  -8.8005
    -8.7604  -8.7296  -8.6839  -8.5948  -8.5737  -8.5557  -8.5069  -8.3465
    -5.2690  -5.2538  -5.2439  -5.2027  -5.1924  -5.1874  -5.1792  -5.1732
    -5.1558  -5.1500  -5.1473  -5.1423  -5.1357  -5.1319  -5.1295  -5.1263
    -5.1214  -5.1159  -5.0967  -5.0913  -5.0867  -5.0832  -5.0790  -5.0685
    -4.3374  -4.1265  -3.8269  -3.7718  -3.6026  -3.5388  -3.2089  -2.9644
    -0.7100  -0.6781  -0.6308  -0.5977  -0.5778  -0.5157  -0.4242  -0.4003
    -0.1229  -0.0947   0.0062   0.0660   0.3777   0.4591   0.4904   0.5172
     0.5509   0.5818   0.6357   0.6518   0.7026   0.7397   0.7793   0.8075
     0.8656   0.9269   0.9425   1.0025   1.0820   1.0937   1.1456   1.1753
     1.2016   1.2384   1.2661   1.3034   1.3243   1.3545   1.3757   1.3877
     1.4368   1.4580   1.4614   1.5094   1.5325   1.5509   1.5628   1.5818
     1.6093   1.6286   1.6666   1.6896   1.7037   1.7343   1.7643   1.7728
     1.8080   1.8483   1.8776   1.9370   1.9864   2.0323   2.0733   2.1022
     2.1127   2.1782   2.2078   2.2711   2.4065   2.5136   2.7259   2.8573

          k =-0.3750 0.1250 0.1250 (132608 PWs)   bands (ev):

   -18.4944 -18.4178 -18.4013 -18.3779 -18.3635 -18.3609 -18.3430 -18.3352
   -18.3349 -18.3337 -18.3295 -18.3272 -18.3255 -18.3238 -18.3196 -18.3177
   -18.3133 -18.3057 -18.2465 -18.2432 -18.2390 -18.2333 -18.2304 -18.2266
   -18.2231 -18.2230 -18.2227 -18.2194 -18.2162 -18.2136 -18.2106 -18.2105
   -18.2098 -18.2091 -18.2059 -18.2024 -18.2002 -18.1998 -18.1980 -18.1969
   -18.1956 -18.1850 -18.1751 -18.1478 -18.1458 -18.1323 -18.1296 -18.1224
    -9.5224  -9.4421  -9.2863  -9.2514  -9.2024  -9.1192  -9.0788  -9.0222
    -8.9778  -8.9709  -8.9381  -8.9232  -8.9038  -8.8535  -8.8189  -8.8050
    -8.7461  -8.7411  -8.6815  -8.5953  -8.5730  -8.5563  -8.5069  -8.3465
    -5.2690  -5.2538  -5.2439  -5.2028  -5.1925  -5.1874  -5.1789  -5.1732
    -5.1562  -5.1500  -5.1474  -5.1418  -5.1354  -5.1316  -5.1296  -5.1271
    -5.1214  -5.1158  -5.0965  -5.0906  -5.0876  -5.0836  -5.0787  -5.0682
    -4.3377  -4.1262  -3.8138  -3.7842  -3.6056  -3.5391  -3.2058  -2.9645
    -0.7216  -0.6806  -0.6412  -0.5892  -0.5571  -0.5110  -0.4279  -0.4124
    -0.1223  -0.0745   0.0007   0.0594   0.3823   0.4466   0.4889   0.5270
     0.5578   0.5888   0.6280   0.6614   0.6793   0.7348   0.7757   0.7998
     0.8724   0.9301   0.9597   1.0160   1.0400   1.1023   1.1683   1.1777
     1.2128   1.2497   1.2598   1.2954   1.3256   1.3440   1.3681   1.3911
     1.4224   1.4497   1.4734   1.4902   1.5338   1.5503   1.5654   1.5956
     1.6184   1.6306   1.6601   1.6820   1.7056   1.7194   1.7622   1.7892
     1.8188   1.8575   1.8685   1.9308   1.9926   2.0193   2.0779   2.0943
     2.1115   2.1703   2.2377   2.2778   2.4270   2.4719   2.7377   2.8520

          k =-0.1250 0.3750 0.1250 (132608 PWs)   bands (ev):

   -18.4944 -18.4178 -18.4013 -18.3779 -18.3635 -18.3609 -18.3430 -18.3353
   -18.3349 -18.3336 -18.3295 -18.3272 -18.3255 -18.3238 -18.3196 -18.3177
   -18.3133 -18.3057 -18.2465 -18.2432 -18.2390 -18.2333 -18.2304 -18.2266
   -18.2231 -18.2230 -18.2227 -18.2194 -18.2162 -18.2136 -18.2106 -18.2105
   -18.2098 -18.2091 -18.2059 -18.2024 -18.2002 -18.1998 -18.1980 -18.1969
   -18.1956 -18.1850 -18.1751 -18.1478 -18.1458 -18.1323 -18.1296 -18.1224
    -9.5220  -9.4412  -9.3012  -9.2404  -9.1902  -9.1157  -9.0922  -9.0233
    -8.9805  -8.9662  -8.9521  -8.9269  -8.8947  -8.8434  -8.8239  -8.7983
    -8.7556  -8.7329  -8.6812  -8.6053  -8.5673  -8.5497  -8.5114  -8.3471
    -5.2690  -5.2540  -5.2438  -5.2025  -5.1929  -5.1871  -5.1794  -5.1729
    -5.1560  -5.1500  -5.1475  -5.1416  -5.1357  -5.1308  -5.1300  -5.1278
    -5.1220  -5.1150  -5.0968  -5.0904  -5.0876  -5.0835  -5.0784  -5.0685
    -4.3430  -4.1321  -3.8347  -3.7668  -3.6044  -3.5143  -3.2085  -2.9631
    -0.7046  -0.6636  -0.6279  -0.6002  -0.5449  -0.5141  -0.4771  -0.3656
    -0.1672  -0.0768  -0.0326   0.0219   0.4087   0.4485   0.4692   0.5079
     0.5190   0.5551   0.6087   0.6586   0.7151   0.7762   0.8011   0.8370
     0.8884   0.9314   0.9681   1.0219   1.0772   1.1246   1.1320   1.1513
     1.1964   1.2067   1.2386   1.2609   1.2679   1.3138   1.3431   1.3761
     1.4351   1.4799   1.4966   1.5049   1.5345   1.5491   1.5653   1.5980
     1.6186   1.6510   1.6693   1.7055   1.7168   1.7494   1.7813   1.7933
     1.8152   1.8554   1.8901   1.9323   1.9983   2.0197   2.0601   2.0838
     2.1408   2.1877   2.2711   2.3283   2.4078   2.5056   2.7708   2.8827

          k =-0.1250-0.3750-0.1250 (132608 PWs)   bands (ev):

   -18.4944 -18.4178 -18.4013 -18.3779 -18.3635 -18.3609 -18.3430 -18.3353
   -18.3349 -18.3336 -18.3295 -18.3272 -18.3255 -18.3238 -18.3196 -18.3177
   -18.3133 -18.3057 -18.2465 -18.2432 -18.2390 -18.2333 -18.2304 -18.2266
   -18.2231 -18.2230 -18.2227 -18.2194 -18.2162 -18.2136 -18.2106 -18.2105
   -18.2098 -18.2091 -18.2059 -18.2024 -18.2002 -18.1998 -18.1980 -18.1969
   -18.1956 -18.1850 -18.1751 -18.1478 -18.1458 -18.1323 -18.1296 -18.1224
    -9.5221  -9.4413  -9.3008  -9.2396  -9.1877  -9.1209  -9.0926  -9.0229
    -8.9854  -8.9676  -8.9450  -8.9245  -8.8940  -8.8413  -8.8275  -8.7953
    -8.7607  -8.7320  -8.6804  -8.6059  -8.5681  -8.5488  -8.5110  -8.3471
    -5.2690  -5.2540  -5.2438  -5.2025  -5.1931  -5.1869  -5.1792  -5.1730
    -5.1556  -5.1506  -5.1473  -5.1423  -5.1358  -5.1313  -5.1289  -5.1278
    -5.1210  -5.1162  -5.0968  -5.0909  -5.0867  -5.0832  -5.0789  -5.0686
    -4.3434  -4.1329  -3.8271  -3.7760  -3.5750  -3.5429  -3.2097  -2.9596
    -0.7084  -0.6619  -0.6429  -0.5915  -0.5407  -0.5167  -0.4566  -0.3804
    -0.1586  -0.0741  -0.0406   0.0170   0.4189   0.4467   0.4713   0.4885
     0.5215   0.5613   0.6191   0.6553   0.7187   0.7421   0.8147   0.8535
     0.8938   0.9232   0.9898   1.0153   1.0340   1.0961   1.1308   1.1582
     1.1970   1.2181   1.2397   1.2631   1.3226   1.3401   1.3570   1.3964
     1.4158   1.4455   1.4660   1.4938   1.5209   1.5449   1.5948   1.6114
     1.6158   1.6512   1.6685   1.7099   1.7232   1.7530   1.7757   1.7931
     1.8187   1.8606   1.8767   1.9199   1.9901   2.0150   2.0684   2.0903
     2.1589   2.1887   2.2471   2.2977   2.4518   2.4772   2.7786   2.9028

          k = 0.1250 0.3750-0.1250 (132608 PWs)   bands (ev):

   -18.4944 -18.4178 -18.4013 -18.3779 -18.3635 -18.3609 -18.3430 -18.3353
   -18.3349 -18.3336 -18.3295 -18.3272 -18.3255 -18.3238 -18.3196 -18.3177
   -18.3133 -18.3057 -18.2465 -18.2432 -18.2390 -18.2333 -18.2304 -18.2266
   -18.2231 -18.2230 -18.2227 -18.2194 -18.2162 -18.2136 -18.2106 -18.2105
   -18.2098 -18.2091 -18.2059 -18.2024 -18.2002 -18.1998 -18.1980 -18.1969
   -18.1956 -18.1850 -18.1751 -18.1478 -18.1458 -18.1323 -18.1296 -18.1224
    -9.5216  -9.4419  -9.3011  -9.2403  -9.1879  -9.1224  -9.0834  -9.0267
    -8.9868  -8.9617  -8.9567  -8.9228  -8.8928  -8.8396  -8.8291  -8.7940
    -8.7612  -8.7275  -8.6847  -8.6048  -8.5678  -8.5490  -8.5113  -8.3471
    -5.2690  -5.2540  -5.2438  -5.2024  -5.1929  -5.1871  -5.1796  -5.1729
    -5.1555  -5.1505  -5.1472  -5.1419  -5.1359  -5.1317  -5.1295  -5.1268
    -5.1224  -5.1150  -5.0969  -5.0911  -5.0866  -5.0831  -5.0788  -5.0687
    -4.3422  -4.1349  -3.8329  -3.7654  -3.5981  -3.5234  -3.2049  -2.9655
    -0.7001  -0.6514  -0.6224  -0.6036  -0.5566  -0.5162  -0.4798  -0.3710
    -0.1701  -0.0682  -0.0408   0.0245   0.4165   0.4381   0.4684   0.5058
     0.5319   0.5599   0.6100   0.6549   0.7028   0.7475   0.8269   0.8629
     0.8713   0.9277   0.9846   1.0031   1.0911   1.1172   1.1301   1.1558
     1.1842   1.2120   1.2363   1.2565   1.2823   1.3137   1.3462   1.3911
     1.4189   1.4625   1.4822   1.5072   1.5367   1.5506   1.5776   1.5930
     1.6222   1.6563   1.6842   1.7064   1.7235   1.7482   1.7640   1.7982
     1.8296   1.8742   1.8813   1.9196   1.9909   2.0013   2.0605   2.0848
     2.1472   2.1789   2.2797   2.3008   2.4622   2.4809   2.7717   2.8811

          k = 0.1250-0.3750 0.1250 (132608 PWs)   bands (ev):

   -18.4944 -18.4178 -18.4013 -18.3779 -18.3635 -18.3609 -18.3430 -18.3353
   -18.3349 -18.3336 -18.3295 -18.3272 -18.3255 -18.3238 -18.3196 -18.3177
   -18.3133 -18.3057 -18.2465 -18.2432 -18.2390 -18.2333 -18.2304 -18.2266
   -18.2231 -18.2230 -18.2227 -18.2194 -18.2162 -18.2136 -18.2106 -18.2105
   -18.2098 -18.2091 -18.2059 -18.2024 -18.2002 -18.1998 -18.1980 -18.1969
   -18.1956 -18.1850 -18.1751 -18.1478 -18.1458 -18.1323 -18.1296 -18.1224
    -9.5219  -9.4418  -9.3000  -9.2405  -9.1836  -9.1318  -9.0856  -9.0235
    -8.9822  -8.9639  -8.9477  -8.9251  -8.8976  -8.8442  -8.8261  -8.7984
    -8.7534  -8.7288  -8.6855  -8.6061  -8.5677  -8.5495  -8.5102  -8.3472
    -5.2690  -5.2540  -5.2438  -5.2023  -5.1931  -5.1871  -5.1795  -5.1727
    -5.1557  -5.1508  -5.1474  -5.1419  -5.1354  -5.1314  -5.1288  -5.1270
    -5.1220  -5.1163  -5.0967  -5.0905  -5.0877  -5.0834  -5.0784  -5.0684
    -4.3430  -4.1358  -3.8168  -3.7762  -3.5927  -3.5380  -3.2004  -2.9638
    -0.7019  -0.6684  -0.6525  -0.5949  -0.5431  -0.4944  -0.4644  -0.3735
    -0.1774  -0.0659  -0.0443   0.0337   0.4091   0.4360   0.4660   0.5168
     0.5286   0.5560   0.6038   0.6611   0.6980   0.7715   0.8186   0.8434
     0.8881   0.9133   0.9931   1.0050   1.0607   1.0739   1.1446   1.1614
     1.1820   1.2130   1.2592   1.2765   1.3026   1.3173   1.3614   1.4001
     1.4184   1.4548   1.4797   1.4991   1.5186   1.5440   1.5769   1.5984
     1.6279   1.6519   1.6728   1.7077   1.7282   1.7406   1.7721   1.8024
     1.8050   1.8517   1.8893   1.9474   1.9952   2.0111   2.0622   2.0931
     2.1469   2.1869   2.2420   2.3321   2.4198   2.4944   2.7824   2.8881

          k =-0.1250-0.3750 0.3750 (132616 PWs)   bands (ev):

   -18.4944 -18.4178 -18.4013 -18.3779 -18.3635 -18.3609 -18.3430 -18.3353
   -18.3349 -18.3336 -18.3295 -18.3272 -18.3255 -18.3238 -18.3196 -18.3177
   -18.3133 -18.3057 -18.2465 -18.2432 -18.2390 -18.2333 -18.2304 -18.2266
   -18.2231 -18.2230 -18.2227 -18.2194 -18.2162 -18.2136 -18.2106 -18.2105
   -18.2098 -18.2091 -18.2059 -18.2024 -18.2001 -18.1998 -18.1980 -18.1969
   -18.1956 -18.1850 -18.1751 -18.1478 -18.1458 -18.1323 -18.1296 -18.1224
    -9.5174  -9.4386  -9.2948  -9.2499  -9.1846  -9.1391  -9.0985  -9.0319
    -8.9870  -8.9632  -8.9453  -8.9143  -8.8900  -8.8386  -8.8209  -8.7957
    -8.7547  -8.7322  -8.6748  -8.5998  -8.5743  -8.5547  -8.5151  -8.3471
    -5.2690  -5.2539  -5.2439  -5.2024  -5.1925  -5.1871  -5.1789  -5.1737
    -5.1556  -5.1501  -5.1473  -5.1410  -5.1355  -5.1333  -5.1301  -5.1261
    -5.1213  -5.1156  -5.0972  -5.0911  -5.0867  -5.0830  -5.0787  -5.0690
    -4.2106  -4.0566  -3.9164  -3.7980  -3.6207  -3.4870  -3.3420  -3.1843
    -0.6337  -0.6009  -0.5644  -0.5268  -0.3307  -0.3137  -0.2100  -0.1285
    -0.0747  -0.0291  -0.0038   0.1440   0.3696   0.4110   0.4533   0.4673
     0.5074   0.5619   0.5695   0.5996   0.6435   0.6785   0.7085   0.7486
     0.8120   0.8589   0.8907   0.9368   0.9849   1.0367   1.0598   1.1069
     1.1476   1.1885   1.2085   1.2330   1.2614   1.2874   1.3292   1.3459
     1.3856   1.4287   1.4950   1.5106   1.5462   1.5743   1.5929   1.5987
     1.6362   1.6659   1.6910   1.7138   1.7330   1.7690   1.7943   1.8179
     1.8479   1.8703   1.8940   1.9171   1.9515   1.9834   2.0270   2.0497
     2.0891   2.1299   2.1556   2.2198   2.3071   2.4659   2.5450   2.5890

          k =-0.1250 0.3750-0.3750 (132616 PWs)   bands (ev):

   -18.4944 -18.4178 -18.4013 -18.3779 -18.3635 -18.3609 -18.3430 -18.3353
   -18.3349 -18.3336 -18.3295 -18.3272 -18.3255 -18.3238 -18.3196 -18.3177
   -18.3133 -18.3057 -18.2465 -18.2432 -18.2390 -18.2333 -18.2304 -18.2266
   -18.2231 -18.2230 -18.2227 -18.2194 -18.2162 -18.2136 -18.2106 -18.2105
   -18.2098 -18.2091 -18.2059 -18.2024 -18.2001 -18.1998 -18.1980 -18.1969
   -18.1956 -18.1850 -18.1751 -18.1478 -18.1458 -18.1323 -18.1296 -18.1224
    -9.5176  -9.4386  -9.2932  -9.2500  -9.1783  -9.1513  -9.0985  -9.0298
    -8.9835  -8.9590  -8.9463  -8.9146  -8.8931  -8.8424  -8.8187  -8.7973
    -8.7492  -8.7345  -8.6746  -8.6012  -8.5747  -8.5550  -8.5139  -8.3472
    -5.2690  -5.2539  -5.2439  -5.2023  -5.1927  -5.1871  -5.1787  -5.1736
    -5.1558  -5.1507  -5.1473  -5.1411  -5.1348  -5.1328  -5.1302  -5.1256
    -5.1204  -5.1174  -5.0970  -5.0904  -5.0878  -5.0833  -5.0782  -5.0688
    -4.2125  -4.0562  -3.9158  -3.7861  -3.6323  -3.4918  -3.3431  -3.1772
    -0.6412  -0.6056  -0.5794  -0.5140  -0.3247  -0.2969  -0.2171  -0.1347
    -0.0662  -0.0277   0.0005   0.1515   0.3679   0.4093   0.4403   0.4513
     0.5179   0.5421   0.5793   0.6096   0.6413   0.6963   0.7204   0.7483
     0.8079   0.8418   0.8828   0.9268   0.9822   1.0228   1.0863   1.1114
     1.1474   1.1746   1.2046   1.2347   1.2607   1.2827   1.3340   1.3657
     1.3945   1.4555   1.4837   1.4985   1.5314   1.5658   1.5859   1.6188
     1.6440   1.6673   1.6874   1.7141   1.7220   1.7546   1.7908   1.8112
     1.8486   1.8616   1.8987   1.9315   1.9680   1.9896   2.0202   2.0558
     2.0960   2.1415   2.1593   2.1932   2.3105   2.4558   2.5465   2.5935

          k = 0.1250-0.3750-0.3750 (132616 PWs)   bands (ev):

   -18.4944 -18.4178 -18.4013 -18.3779 -18.3635 -18.3609 -18.3430 -18.3353
   -18.3349 -18.3336 -18.3295 -18.3272 -18.3255 -18.3238 -18.3196 -18.3177
   -18.3133 -18.3057 -18.2465 -18.2432 -18.2390 -18.2333 -18.2304 -18.2266
   -18.2231 -18.2230 -18.2227 -18.2194 -18.2162 -18.2136 -18.2106 -18.2105
   -18.2098 -18.2091 -18.2059 -18.2024 -18.2001 -18.1998 -18.1980 -18.1969
   -18.1956 -18.1850 -18.1751 -18.1478 -18.1458 -18.1323 -18.1296 -18.1224
    -9.5177  -9.4379  -9.2948  -9.2498  -9.1892  -9.1281  -9.1088  -9.0289
    -8.9835  -8.9598  -8.9480  -8.9178  -8.8914  -8.8417  -8.8144  -8.7986
    -8.7519  -8.7372  -8.6713  -8.6002  -8.5742  -8.5554  -8.5151  -8.3471
    -5.2691  -5.2539  -5.2439  -5.2025  -5.1925  -5.1872  -5.1786  -5.1738
    -5.1561  -5.1499  -5.1474  -5.1407  -5.1352  -5.1326  -5.1309  -5.1266
    -5.1207  -5.1158  -5.0970  -5.0903  -5.0878  -5.0835  -5.0782  -5.0688
    -4.2144  -4.0286  -3.9576  -3.7698  -3.6486  -3.4267  -3.3968  -3.1727
    -0.6417  -0.5967  -0.5669  -0.5309  -0.3265  -0.2891  -0.2448  -0.1306
    -0.0554  -0.0185   0.0221   0.0991   0.3830   0.4099   0.4236   0.4838
     0.5300   0.5583   0.5804   0.6009   0.6228   0.6807   0.7217   0.7663
     0.7830   0.8501   0.8775   0.9432   0.9985   1.0311   1.0594   1.1180
     1.1387   1.1703   1.2171   1.2339   1.2463   1.3095   1.3217   1.3542
     1.3839   1.4371   1.4996   1.5123   1.5378   1.5630   1.5869   1.6040
     1.6456   1.6723   1.6888   1.7090   1.7196   1.7632   1.7875   1.8341
     1.8505   1.8712   1.8804   1.9092   1.9745   1.9989   2.0326   2.0540
     2.0660   2.1319   2.1610   2.2156   2.3232   2.4499   2.5298   2.6011

          k = 0.3750 0.1250-0.3750 (132616 PWs)   bands (ev):

   -18.4944 -18.4178 -18.4013 -18.3779 -18.3635 -18.3609 -18.3430 -18.3352
   -18.3349 -18.3337 -18.3295 -18.3272 -18.3255 -18.3238 -18.3196 -18.3177
   -18.3133 -18.3057 -18.2465 -18.2432 -18.2390 -18.2333 -18.2304 -18.2266
   -18.2231 -18.2230 -18.2227 -18.2194 -18.2162 -18.2136 -18.2106 -18.2105
   -18.2098 -18.2091 -18.2059 -18.2024 -18.2001 -18.1998 -18.1980 -18.1969
   -18.1956 -18.1850 -18.1751 -18.1478 -18.1458 -18.1323 -18.1296 -18.1224
    -9.5178  -9.4383  -9.2873  -9.2633  -9.1816  -9.1334  -9.1006  -9.0298
    -8.9827  -8.9624  -8.9482  -8.9113  -8.8960  -8.8528  -8.8090  -8.7930
    -8.7563  -8.7315  -8.6782  -8.5950  -8.5787  -8.5574  -8.5111  -8.3469
    -5.2691  -5.2537  -5.2438  -5.2022  -5.1922  -5.1878  -5.1784  -5.1742
    -5.1551  -5.1501  -5.1477  -5.1414  -5.1353  -5.1323  -5.1305  -5.1264
    -5.1223  -5.1146  -5.0966  -5.0913  -5.0868  -5.0832  -5.0790  -5.0687
    -4.2058  -4.0542  -3.9100  -3.7653  -3.6569  -3.5166  -3.3322  -3.1858
    -0.6480  -0.5972  -0.5565  -0.4975  -0.3750  -0.3108  -0.1979  -0.1516
    -0.1025   0.0152   0.0533   0.1300   0.3132   0.4411   0.4710   0.4889
     0.5234   0.5483   0.5851   0.6327   0.6626   0.6879   0.7122   0.7459
     0.8006   0.8681   0.8879   0.9468   0.9612   1.0137   1.0459   1.0930
     1.1241   1.1717   1.2250   1.2533   1.2804   1.3181   1.3406   1.3744
     1.4420   1.4512   1.4898   1.5158   1.5435   1.5647   1.6008   1.6064
     1.6234   1.6545   1.6745   1.7108   1.7188   1.7341   1.7704   1.7803
     1.8131   1.8546   1.8886   1.9058   1.9322   2.0070   2.0409   2.0773
     2.0851   2.1183   2.1611   2.2403   2.2609   2.3741   2.4827   2.5819

          k =-0.3750-0.1250-0.3750 (132616 PWs)   bands (ev):

   -18.4944 -18.4178 -18.4013 -18.3779 -18.3635 -18.3609 -18.3430 -18.3352
   -18.3349 -18.3337 -18.3295 -18.3272 -18.3255 -18.3238 -18.3196 -18.3177
   -18.3133 -18.3057 -18.2465 -18.2432 -18.2390 -18.2333 -18.2304 -18.2266
   -18.2231 -18.2230 -18.2227 -18.2194 -18.2162 -18.2136 -18.2106 -18.2105
   -18.2098 -18.2091 -18.2059 -18.2024 -18.2001 -18.1998 -18.1980 -18.1969
   -18.1956 -18.1850 -18.1751 -18.1478 -18.1458 -18.1323 -18.1296 -18.1224
    -9.5183  -9.4375  -9.2873  -9.2637  -9.1775  -9.1356  -9.1072  -9.0253
    -8.9842  -8.9638  -8.9426  -8.9149  -8.8935  -8.8516  -8.8117  -8.7931
    -8.7526  -8.7370  -8.6752  -8.5971  -8.5781  -8.5571  -8.5107  -8.3470
    -5.2690  -5.2538  -5.2438  -5.2023  -5.1924  -5.1876  -5.1778  -5.1746
    -5.1553  -5.1507  -5.1472  -5.1413  -5.1350  -5.1324  -5.1302  -5.1266
    -5.1220  -5.1153  -5.0964  -5.0912  -5.0868  -5.0833  -5.0790  -5.0686
    -4.2141  -4.0156  -3.9465  -3.7731  -3.6503  -3.4600  -3.4045  -3.1623
    -0.6515  -0.6115  -0.5379  -0.5029  -0.3868  -0.2753  -0.2149  -0.1734
    -0.0916   0.0084   0.0585   0.1618   0.3397   0.3796   0.4639   0.5190
     0.5416   0.5546   0.5689   0.5946   0.6303   0.6969   0.7148   0.7906
     0.8125   0.8504   0.8743   0.9536   0.9771   1.0191   1.0442   1.0741
     1.1329   1.1780   1.2250   1.2566   1.2792   1.3170   1.3364   1.3720
     1.4345   1.4738   1.4924   1.5052   1.5441   1.5638   1.5886   1.6134
     1.6275   1.6518   1.6806   1.6959   1.7157   1.7369   1.7601   1.7833
     1.8252   1.8609   1.8749   1.9122   1.9283   1.9806   2.0464   2.0856
     2.1140   2.1187   2.1669   2.2141   2.2620   2.3901   2.4710   2.5861

          k = 0.3750-0.1250 0.3750 (132616 PWs)   bands (ev):

   -18.4944 -18.4178 -18.4013 -18.3779 -18.3635 -18.3609 -18.3430 -18.3352
   -18.3349 -18.3337 -18.3295 -18.3272 -18.3255 -18.3238 -18.3196 -18.3177
   -18.3133 -18.3057 -18.2465 -18.2432 -18.2390 -18.2333 -18.2304 -18.2266
   -18.2231 -18.2230 -18.2227 -18.2194 -18.2162 -18.2136 -18.2106 -18.2105
   -18.2098 -18.2091 -18.2059 -18.2024 -18.2001 -18.1998 -18.1980 -18.1969
   -18.1956 -18.1850 -18.1751 -18.1478 -18.1458 -18.1323 -18.1296 -18.1224
    -9.5181  -9.4377  -9.2862  -9.2661  -9.1718  -9.1428  -9.1022  -9.0328
    -8.9777  -8.9551  -8.9503  -8.9118  -8.9003  -8.8523  -8.8092  -8.7972
    -8.7453  -8.7376  -8.6781  -8.5971  -8.5784  -8.5576  -8.5100  -8.3470
    -5.2690  -5.2538  -5.2438  -5.2021  -5.1925  -5.1878  -5.1782  -5.1742
    -5.1553  -5.1509  -5.1472  -5.1410  -5.1348  -5.1323  -5.1301  -5.1263
    -5.1221  -5.1157  -5.0963  -5.0908  -5.0879  -5.0835  -5.0784  -5.0685
    -4.2133  -4.0186  -3.9479  -3.7558  -3.6701  -3.4536  -3.4033  -3.1638
    -0.6472  -0.6138  -0.5410  -0.5022  -0.3968  -0.2744  -0.2110  -0.1730
    -0.0814   0.0085   0.0584   0.1579   0.3390   0.3828   0.4716   0.5138
     0.5328   0.5644   0.5770   0.6136   0.6250   0.6857   0.7172   0.7598
     0.8220   0.8441   0.8906   0.9464   0.9757   1.0112   1.0402   1.0738
     1.1285   1.1661   1.2224   1.2574   1.2921   1.3140   1.3487   1.3877
     1.4119   1.4574   1.4880   1.5169   1.5519   1.5705   1.5934   1.6149
     1.6366   1.6484   1.6702   1.6966   1.7121   1.7493   1.7600   1.7883
     1.8265   1.8505   1.8794   1.8988   1.9294   1.9956   2.0669   2.0847
     2.0969   2.1104   2.1595   2.2417   2.2635   2.3849   2.4771   2.5610

          k =-0.3750 0.1250 0.3750 (132616 PWs)   bands (ev):

   -18.4944 -18.4178 -18.4013 -18.3779 -18.3635 -18.3609 -18.3430 -18.3352
   -18.3349 -18.3337 -18.3295 -18.3272 -18.3255 -18.3238 -18.3196 -18.3177
   -18.3133 -18.3057 -18.2465 -18.2432 -18.2390 -18.2333 -18.2304 -18.2266
   -18.2231 -18.2230 -18.2227 -18.2194 -18.2162 -18.2136 -18.2106 -18.2105
   -18.2098 -18.2091 -18.2059 -18.2024 -18.2001 -18.1998 -18.1980 -18.1969
   -18.1956 -18.1850 -18.1751 -18.1478 -18.1458 -18.1323 -18.1296 -18.1224
    -9.5179  -9.4382  -9.2869  -9.2611  -9.1870  -9.1363  -9.0964  -9.0275
    -8.9767  -8.9638  -8.9489  -8.9155  -8.8981  -8.8535  -8.8060  -8.7959
    -8.7472  -8.7406  -8.6755  -8.5955  -8.5782  -8.5580  -8.5110  -8.3470
    -5.2690  -5.2537  -5.2438  -5.2022  -5.1923  -5.1878  -5.1780  -5.1744
    -5.1555  -5.1504  -5.1473  -5.1409  -5.1348  -5.1320  -5.1310  -5.1272
    -5.1220  -5.1147  -5.0964  -5.0907  -5.0879  -5.0835  -5.0785  -5.0685
    -4.2064  -4.0520  -3.9112  -3.7602  -3.6656  -3.5147  -3.3332  -3.1832
    -0.6551  -0.5949  -0.5573  -0.4972  -0.3786  -0.3116  -0.1784  -0.1576
    -0.0990   0.0078   0.0551   0.1303   0.3196   0.4320   0.4615   0.5002
     0.5331   0.5543   0.5716   0.6398   0.6508   0.6864   0.7097   0.7487
     0.7913   0.8809   0.9011   0.9416   0.9544   1.0165   1.0426   1.0984
     1.1397   1.1759   1.1916   1.2437   1.2909   1.3235   1.3408   1.3814
     1.4111   1.4618   1.4891   1.5324   1.5380   1.5717   1.5884   1.6139
     1.6315   1.6417   1.6749   1.6833   1.7133   1.7432   1.7665   1.7990
     1.8210   1.8707   1.8857   1.8990   1.9345   1.9950   2.0525   2.0704
     2.0918   2.1167   2.1715   2.2275   2.2823   2.3626   2.4789   2.5763

          k = 0.3750-0.3750 0.1250 (132616 PWs)   bands (ev):

   -18.4944 -18.4178 -18.4013 -18.3779 -18.3635 -18.3609 -18.3430 -18.3352
   -18.3349 -18.3337 -18.3295 -18.3272 -18.3255 -18.3238 -18.3196 -18.3177
   -18.3133 -18.3057 -18.2465 -18.2432 -18.2390 -18.2333 -18.2304 -18.2266
   -18.2231 -18.2230 -18.2227 -18.2194 -18.2162 -18.2136 -18.2106 -18.2105
   -18.2098 -18.2091 -18.2059 -18.2024 -18.2002 -18.1998 -18.1980 -18.1969
   -18.1956 -18.1850 -18.1751 -18.1478 -18.1458 -18.1323 -18.1296 -18.1224
    -9.5186  -9.4385  -9.2892  -9.2540  -9.1867  -9.1282  -9.0952  -9.0482
    -8.9878  -8.9626  -8.9462  -8.9196  -8.8821  -8.8336  -8.8193  -8.8011
    -8.7599  -8.7202  -8.6807  -8.5997  -8.5743  -8.5575  -8.5116  -8.3477
    -5.2689  -5.2539  -5.2438  -5.2024  -5.1928  -5.1869  -5.1792  -5.1727
    -5.1562  -5.1499  -5.1474  -5.1426  -5.1353  -5.1316  -5.1290  -5.1263
    -5.1213  -5.1172  -5.0976  -5.0905  -5.0874  -5.0839  -5.0784  -5.0681
    -4.2215  -4.0542  -3.9239  -3.7832  -3.6335  -3.4853  -3.3329  -3.1628
    -0.6909  -0.6362  -0.5885  -0.5372  -0.3545  -0.2699  -0.2389  -0.1239
    -0.0593   0.0134   0.0889   0.1283   0.3610   0.3980   0.4352   0.4701
     0.4998   0.5298   0.5749   0.6021   0.6241   0.6788   0.7164   0.7609
     0.7953   0.8629   0.8890   0.9600   1.0188   1.0446   1.0771   1.1182
     1.1270   1.1720   1.2119   1.2468   1.2623   1.2896   1.3598   1.3922
     1.4296   1.4459   1.4627   1.4938   1.5343   1.5508   1.5779   1.6169
     1.6334   1.6502   1.6834   1.7146   1.7433   1.7733   1.7882   1.8020
     1.8329   1.8837   1.8934   1.9237   1.9705   1.9989   2.0282   2.0540
     2.0795   2.1104   2.1487   2.1696   2.3225   2.4169   2.5214   2.6255

          k =-0.3750-0.3750-0.1250 (132616 PWs)   bands (ev):

   -18.4944 -18.4178 -18.4013 -18.3779 -18.3635 -18.3609 -18.3430 -18.3352
   -18.3349 -18.3337 -18.3295 -18.3272 -18.3255 -18.3238 -18.3196 -18.3177
   -18.3133 -18.3057 -18.2465 -18.2432 -18.2390 -18.2333 -18.2304 -18.2266
   -18.2231 -18.2230 -18.2227 -18.2194 -18.2162 -18.2136 -18.2106 -18.2105
   -18.2098 -18.2091 -18.2059 -18.2024 -18.2002 -18.1998 -18.1980 -18.1969
   -18.1956 -18.1850 -18.1751 -18.1478 -18.1458 -18.1323 -18.1296 -18.1224
    -9.5187  -9.4385  -9.2904  -9.2490  -9.1950  -9.1179  -9.1026  -9.0445
    -8.9880  -8.9681  -8.9445  -8.9207  -8.8793  -8.8289  -8.8224  -8.7951
    -8.7692  -8.7224  -8.6767  -8.5996  -8.5743  -8.5570  -8.5122  -8.3477
    -5.2689  -5.2539  -5.2438  -5.2025  -5.1928  -5.1867  -5.1790  -5.1730
    -5.1561  -5.1501  -5.1470  -5.1430  -5.1353  -5.1318  -5.1290  -5.1270
    -5.1208  -5.1168  -5.0976  -5.0909  -5.0864  -5.0837  -5.0788  -5.0683
    -4.2220  -4.0478  -3.9386  -3.7633  -3.6546  -3.4565  -3.3587  -3.1558
    -0.6906  -0.6370  -0.5968  -0.5254  -0.3511  -0.2781  -0.2085  -0.1503
    -0.0439  -0.0102   0.0846   0.1179   0.3635   0.4109   0.4557   0.4658
     0.4893   0.5282   0.5591   0.5914   0.6438   0.6829   0.7127   0.7752
     0.8117   0.8274   0.9080   0.9693   1.0115   1.0514   1.0744   1.1184
     1.1423   1.1671   1.1848   1.2478   1.2711   1.3089   1.3488   1.3933
     1.4188   1.4416   1.4550   1.4954   1.5331   1.5590   1.5731   1.6129
     1.6278   1.6568   1.7044   1.7208   1.7464   1.7518   1.7906   1.8033
     1.8360   1.8823   1.8960   1.9234   1.9753   1.9807   2.0141   2.0468
     2.0898   2.1174   2.1321   2.1933   2.2996   2.4484   2.4979   2.6420

          k = 0.3750 0.3750-0.1250 (132616 PWs)   bands (ev):

   -18.4944 -18.4178 -18.4013 -18.3779 -18.3635 -18.3609 -18.3430 -18.3352
   -18.3349 -18.3337 -18.3295 -18.3272 -18.3255 -18.3238 -18.3196 -18.3177
   -18.3133 -18.3057 -18.2465 -18.2432 -18.2390 -18.2333 -18.2304 -18.2266
   -18.2231 -18.2230 -18.2227 -18.2194 -18.2162 -18.2136 -18.2106 -18.2105
   -18.2098 -18.2091 -18.2059 -18.2024 -18.2002 -18.1998 -18.1980 -18.1969
   -18.1956 -18.1850 -18.1751 -18.1478 -18.1458 -18.1323 -18.1296 -18.1224
    -9.5183  -9.4386  -9.2911  -9.2525  -9.1912  -9.1187  -9.0918  -9.0534
    -8.9906  -8.9626  -8.9535  -8.9156  -8.8808  -8.8307  -8.8182  -8.7951
    -8.7711  -8.7183  -8.6804  -8.5979  -8.5745  -8.5573  -8.5126  -8.3476
    -5.2689  -5.2539  -5.2438  -5.2024  -5.1926  -5.1868  -5.1794  -5.1728
    -5.1561  -5.1497  -5.1471  -5.1427  -5.1356  -5.1321  -5.1295  -5.1263
    -5.1219  -5.1156  -5.0977  -5.0911  -5.0864  -5.0837  -5.0787  -5.0684
    -4.2194  -4.0509  -3.9390  -3.7709  -3.6479  -3.4532  -3.3520  -3.1646
    -0.6889  -0.6181  -0.5875  -0.5460  -0.3676  -0.2819  -0.2068  -0.1456
    -0.0430  -0.0036   0.0810   0.1089   0.3731   0.4107   0.4506   0.4713
     0.5045   0.5325   0.5567   0.5964   0.6315   0.6739   0.7141   0.7603
     0.8221   0.8352   0.9158   0.9565   1.0074   1.0577   1.0807   1.0973
     1.1452   1.1743   1.2036   1.2416   1.2739   1.3069   1.3466   1.3805
     1.3948   1.4423   1.4636   1.4973   1.5248   1.5669   1.5835   1.5916
     1.6409   1.6849   1.6992   1.7083   1.7311   1.7722   1.7942   1.8016
     1.8318   1.8822   1.9056   1.9276   1.9660   1.9868   2.0031   2.0492
     2.0918   2.1163   2.1279   2.1979   2.3121   2.4591   2.4970   2.6151

          k =-0.3750 0.3750 0.1250 (132616 PWs)   bands (ev):

   -18.4944 -18.4178 -18.4013 -18.3779 -18.3635 -18.3609 -18.3430 -18.3352
   -18.3349 -18.3337 -18.3295 -18.3272 -18.3255 -18.3238 -18.3196 -18.3177
   -18.3133 -18.3057 -18.2465 -18.2432 -18.2390 -18.2333 -18.2304 -18.2266
   -18.2231 -18.2230 -18.2227 -18.2194 -18.2162 -18.2136 -18.2106 -18.2105
   -18.2098 -18.2091 -18.2059 -18.2024 -18.2002 -18.1998 -18.1980 -18.1969
   -18.1956 -18.1850 -18.1751 -18.1478 -18.1458 -18.1323 -18.1296 -18.1224
    -9.5185  -9.4384  -9.2904  -9.2510  -9.1956  -9.1182  -9.0968  -9.0449
    -8.9870  -8.9673  -8.9508  -8.9175  -8.8824  -8.8326  -8.8173  -8.8010
    -8.7609  -8.7242  -8.6774  -8.5984  -8.5739  -8.5580  -8.5126  -8.3476
    -5.2689  -5.2539  -5.2438  -5.2025  -5.1926  -5.1869  -5.1791  -5.1729
    -5.1565  -5.1496  -5.1472  -5.1423  -5.1353  -5.1316  -5.1296  -5.1272
    -5.1219  -5.1155  -5.0976  -5.0905  -5.0873  -5.0840  -5.0784  -5.0681
    -4.2201  -4.0529  -3.9248  -3.7931  -3.6280  -3.4780  -3.3338  -3.1667
    -0.6906  -0.6250  -0.5943  -0.5371  -0.3544  -0.2824  -0.2382  -0.1214
    -0.0487   0.0111   0.0761   0.1262   0.3450   0.4243   0.4396   0.4742
     0.4963   0.5289   0.5659   0.5958   0.6307   0.6838   0.7234   0.7492
     0.7904   0.8679   0.9066   0.9667   1.0080   1.0455   1.0860   1.1102
     1.1470   1.1740   1.1926   1.2340   1.2776   1.3141   1.3391   1.3745
     1.4006   1.4417   1.4684   1.5057   1.5228   1.5585   1.5890   1.6013
     1.6316   1.6651   1.6821   1.7101   1.7490   1.7754   1.7906   1.7972
     1.8434   1.8774   1.8989   1.9317   1.9674   1.9951   2.0229   2.0365
     2.0874   2.1154   2.1588   2.1811   2.3027   2.4318   2.5254   2.6100

          k =-0.3750-0.3750 0.3750 (132612 PWs)   bands (ev):

   -18.4944 -18.4178 -18.4013 -18.3779 -18.3635 -18.3609 -18.3430 -18.3352
   -18.3349 -18.3337 -18.3295 -18.3272 -18.3255 -18.3238 -18.3196 -18.3177
   -18.3133 -18.3057 -18.2465 -18.2432 -18.2390 -18.2333 -18.2304 -18.2266
   -18.2231 -18.2230 -18.2227 -18.2194 -18.2162 -18.2136 -18.2106 -18.2105
   -18.2098 -18.2091 -18.2059 -18.2024 -18.2001 -18.1998 -18.1980 -18.1969
   -18.1956 -18.1850 -18.1751 -18.1478 -18.1458 -18.1323 -18.1296 -18.1224
    -9.5150  -9.4355  -9.2847  -9.2534  -9.1862  -9.1386  -9.1127  -9.0630
    -8.9855  -8.9675  -8.9440  -8.9028  -8.8807  -8.8270  -8.8110  -8.7910
    -8.7667  -8.7236  -8.6725  -8.5989  -8.5788  -8.5594  -8.5158  -8.3479
    -5.2691  -5.2539  -5.2439  -5.2023  -5.1924  -5.1872  -5.1790  -5.1737
    -5.1558  -5.1501  -5.1474  -5.1423  -5.1353  -5.1333  -5.1300  -5.1260
    -5.1213  -5.1140  -5.0978  -5.0910  -5.0863  -5.0835  -5.0784  -5.0685
    -4.0942  -3.9704  -3.8404  -3.7702  -3.7093  -3.5934  -3.4860  -3.3709
    -0.4364  -0.4134  -0.3854  -0.3020  -0.2327  -0.2139  -0.1607  -0.0703
    -0.0518   0.0330   0.0792   0.2087   0.3184   0.3776   0.4055   0.4480
     0.4711   0.4928   0.5382   0.5627   0.5772   0.6245   0.6587   0.6885
     0.8267   0.8729   0.8950   0.9217   0.9605   0.9972   1.0290   1.0698
     1.0949   1.1209   1.1457   1.1675   1.2121   1.2586   1.2821   1.3259
     1.3769   1.4149   1.4431   1.4790   1.5251   1.5804   1.5943   1.6503
     1.6690   1.6837   1.7099   1.7217   1.7493   1.7676   1.7843   1.8156
     1.8555   1.8636   1.8980   1.9193   1.9367   1.9584   2.0061   2.0302
     2.0642   2.0891   2.0957   2.1264   2.1850   2.2238   2.2614   2.3300

          k =-0.3750 0.3750-0.3750 (132612 PWs)   bands (ev):

   -18.4944 -18.4178 -18.4013 -18.3779 -18.3635 -18.3609 -18.3430 -18.3352
   -18.3349 -18.3337 -18.3295 -18.3272 -18.3255 -18.3238 -18.3196 -18.3177
   -18.3133 -18.3057 -18.2465 -18.2432 -18.2390 -18.2333 -18.2304 -18.2266
   -18.2231 -18.2230 -18.2227 -18.2194 -18.2162 -18.2136 -18.2106 -18.2105
   -18.2098 -18.2091 -18.2059 -18.2024 -18.2001 -18.1998 -18.1980 -18.1969
   -18.1956 -18.1850 -18.1751 -18.1478 -18.1458 -18.1323 -18.1296 -18.1224
    -9.5152  -9.4355  -9.2827  -9.2536  -9.1817  -9.1507  -9.1110  -9.0618
    -8.9804  -8.9672  -8.9418  -8.9056  -8.8814  -8.8313  -8.8090  -8.7947
    -8.7595  -8.7252  -8.6721  -8.6008  -8.5790  -8.5596  -8.5146  -8.3479
    -5.2690  -5.2539  -5.2439  -5.2023  -5.1927  -5.1872  -5.1787  -5.1736
    -5.1560  -5.1507  -5.1473  -5.1422  -5.1350  -5.1327  -5.1297  -5.1257
    -5.1210  -5.1152  -5.0976  -5.0904  -5.0873  -5.0837  -5.0781  -5.0683
    -4.1009  -3.9619  -3.8339  -3.7686  -3.7093  -3.5990  -3.5097  -3.3508
    -0.4629  -0.4183  -0.3874  -0.2740  -0.2319  -0.2129  -0.1454  -0.0792
    -0.0537   0.0231   0.0978   0.2311   0.3268   0.3732   0.3875   0.4389
     0.4558   0.4874   0.5352   0.5670   0.5880   0.6331   0.6528   0.7017
     0.8045   0.8615   0.9041   0.9215   0.9509   0.9932   1.0353   1.0613
     1.0893   1.1285   1.1455   1.1796   1.2090   1.2357   1.3031   1.3279
     1.3852   1.4200   1.4442   1.4969   1.5297   1.5682   1.6069   1.6220
     1.6585   1.6800   1.7147   1.7279   1.7454   1.7700   1.7924   1.8125
     1.8522   1.8727   1.8927   1.9107   1.9335   1.9689   2.0111   2.0389
     2.0622   2.0968   2.1204   2.1355   2.1577   2.2017   2.2478   2.3445

          k = 0.3750-0.3750-0.3750 (132612 PWs)   bands (ev):

   -18.4944 -18.4178 -18.4013 -18.3779 -18.3635 -18.3609 -18.3430 -18.3352
   -18.3349 -18.3337 -18.3295 -18.3272 -18.3255 -18.3238 -18.3196 -18.3177
   -18.3133 -18.3057 -18.2465 -18.2432 -18.2390 -18.2333 -18.2304 -18.2266
   -18.2231 -18.2230 -18.2227 -18.2194 -18.2162 -18.2136 -18.2106 -18.2105
   -18.2098 -18.2091 -18.2059 -18.2024 -18.2001 -18.1998 -18.1980 -18.1969
   -18.1956 -18.1850 -18.1751 -18.1478 -18.1458 -18.1323 -18.1296 -18.1224
    -9.5151  -9.4353  -9.2839  -9.2504  -9.1945  -9.1369  -9.1133  -9.0586
    -8.9819  -8.9682  -8.9452  -8.9052  -8.8819  -8.8307  -8.8050  -8.7955
    -8.7609  -8.7288  -8.6694  -8.5995  -8.5784  -8.5602  -8.5157  -8.3479
    -5.2691  -5.2539  -5.2439  -5.2024  -5.1925  -5.1873  -5.1786  -5.1738
    -5.1562  -5.1504  -5.1471  -5.1419  -5.1350  -5.1327  -5.1305  -5.1265
    -5.1211  -5.1141  -5.0977  -5.0904  -5.0872  -5.0838  -5.0781  -5.0683
    -4.0972  -3.9589  -3.8485  -3.7682  -3.7180  -3.5777  -3.5038  -3.3621
    -0.4546  -0.4046  -0.3849  -0.2924  -0.2637  -0.2085  -0.1314  -0.0801
    -0.0427   0.0407   0.0857   0.1976   0.3265   0.3559   0.3999   0.4386
     0.4814   0.5143   0.5321   0.5553   0.5999   0.6308   0.6543   0.6724
     0.8156   0.8739   0.8878   0.9347   0.9504   1.0042   1.0353   1.0626
     1.0884   1.1360   1.1488   1.1761   1.2124   1.2393   1.2692   1.3256
     1.3764   1.4239   1.4572   1.4723   1.5174   1.5604   1.6208   1.6299
     1.6712   1.6796   1.7155   1.7338   1.7539   1.7691   1.7787   1.8045
     1.8527   1.8731   1.8953   1.9176   1.9549   1.9727   1.9925   2.0357
     2.0702   2.0978   2.1126   2.1310   2.1481   2.2072   2.2561   2.3398

     highest occupied level (ev):     3.1414

!    total energy              =   -2256.29788370 Ry
     estimated scf accuracy    <          6.6E-11 Ry

     The total energy is the sum of the following terms:
     one-electron contribution =    -987.23999949 Ry
     hartree contribution      =     621.63451810 Ry
     xc contribution           =    -647.44672229 Ry
     ewald contribution        =   -1243.24568002 Ry

     convergence has been achieved in  15 iterations

     Forces acting on atoms (cartesian axes, Ry/au):

     atom    1 type  1   force =     0.00159523    0.00325139   -0.00023197
     atom    2 type  2   force =     0.00800457   -0.02586038    0.01237811
     atom    3 type  3   force =     0.00265905    0.00446609    0.00650009
     atom    4 type  3   force =     0.00465211    0.00132837    0.00931942
     atom    5 type  3   force =    -0.00182911   -0.00847975    0.00582155
     atom    6 type  1   force =     0.00593165   -0.00164440   -0.00412969
     atom    7 type  2   force =    -0.01898829    0.00002205   -0.00357670
     atom    8 type  3   force =     0.02121333    0.00607526   -0.00222886
     atom    9 type  3   force =    -0.00210166   -0.00330221   -0.02375758
     atom   10 type  3   force =     0.00855168   -0.00140037   -0.00290648
     atom   11 type  1   force =    -0.00203729   -0.00188316   -0.00167233
     atom   12 type  2   force =     0.00803584    0.02523885    0.02133390
     atom   13 type  3   force =    -0.00122889   -0.00121218   -0.00678591
     atom   14 type  3   force =    -0.00359000   -0.00209652    0.01927170
     atom   15 type  3   force =    -0.00248212    0.00296783   -0.00777041
     atom   16 type  1   force =     0.00113717    0.00116976    0.00140686
     atom   17 type  2   force =     0.00072024   -0.00371816   -0.00051129
     atom   18 type  3   force =    -0.00029080   -0.00093381    0.00331457
     atom   19 type  3   force =     0.00098142    0.00300343   -0.01107092
     atom   20 type  3   force =    -0.00480279   -0.00669872   -0.00322639
     atom   21 type  1   force =    -0.00144487    0.00036147    0.00131716
     atom   22 type  2   force =    -0.01333210    0.01265255   -0.01469492
     atom   23 type  3   force =     0.00015747   -0.00201945    0.00037485
     atom   24 type  3   force =    -0.00025906   -0.00158829   -0.03667235
     atom   25 type  3   force =    -0.00614059    0.00079018    0.00673150
     atom   26 type  1   force =    -0.00409360   -0.00320741    0.00276494
     atom   27 type  2   force =     0.00950496    0.00630737    0.04040801
     atom   28 type  3   force =    -0.01031295    0.00094335   -0.00144881
     atom   29 type  3   force =     0.00225797   -0.00410662    0.01026550
     atom   30 type  3   force =     0.00060740   -0.00000388    0.00128266
     atom   31 type  1   force =     0.00331313    0.00058214   -0.00022409
     atom   32 type  2   force =    -0.01117301   -0.00976790    0.00724645
     atom   33 type  3   force =     0.01069372    0.00171474   -0.00385092
     atom   34 type  3   force =     0.00634778    0.00312573    0.01312385
     atom   35 type  3   force =     0.00200174    0.00537340    0.00671816
     atom   36 type  1   force =     0.00034929    0.00238344   -0.00206892
     atom   37 type  2   force =    -0.00592794   -0.00593258   -0.00940321
     atom   38 type  3   force =    -0.00579027    0.00047310   -0.00087344
     atom   39 type  3   force =     0.00223736   -0.00068090   -0.02982745
     atom   40 type  3   force =    -0.00512779    0.00230620   -0.00264663

     Total force =     0.102843     Total SCF correction =     0.000036


     Computing stress (Cartesian axis) and pressure

          total   stress  (Ry/bohr**3)                   (kbar)     P=       -8.31
  -0.00006244  -0.00000091  -0.00000658           -9.19       -0.13       -0.97
  -0.00000091  -0.00006527   0.00000063           -0.13       -9.60        0.09
  -0.00000658   0.00000063  -0.00004174           -0.97        0.09       -6.14

 
     init_run     :     20.01s CPU     16.83s WALL (       1 calls)
     electrons    :    200.72s CPU    212.65s WALL (       1 calls)
     forces       :      8.76s CPU      4.02s WALL (       1 calls)
     stress       :     32.00s CPU     31.25s WALL (       1 calls)

     Called by init_run:
     wfcinit      :     12.15s CPU     13.77s WALL (       1 calls)
                                       13.77s GPU  (       1 calls)
     potinit      :      4.54s CPU      1.40s WALL (       1 calls)
     hinit0       :      2.75s CPU      0.98s WALL (       1 calls)

     Called by electrons:
     c_bands      :    119.90s CPU    170.25s WALL (      16 calls)
     sum_band     :     21.76s CPU     21.14s WALL (      16 calls)
                                       21.14s GPU  (      16 calls)
     v_of_rho     :     54.73s CPU     16.58s WALL (      16 calls)
     mix_rho      :      6.40s CPU      4.95s WALL (      16 calls)

     Called by c_bands:
     init_us_2    :      2.27s CPU      3.03s WALL (     280 calls)
                                        3.02s GPU  (     280 calls)
     cegterg      :     80.91s CPU    128.59s WALL (     128 calls)

     Called by *egterg:
     cdiaghg      :     13.60s CPU     25.70s WALL (     638 calls)
                                       25.66s GPU  (     638 calls)
     h_psi        :     54.95s CPU     74.14s WALL (     654 calls)
                                       73.70s GPU  (     654 calls)
     g_psi        :      0.00s CPU      0.37s WALL (     518 calls)
                                        0.36s GPU  (     518 calls)

     Called by h_psi:
     h_psi:calbec :      0.35s CPU     10.01s WALL (     654 calls)
                                       10.00s GPU  (     654 calls)
     vloc_psi     :     40.05s CPU     54.06s WALL (     654 calls)
                                       53.14s GPU  (     654 calls)
     add_vuspsi   :      0.33s CPU     10.00s WALL (     654 calls)
                                        9.99s GPU  (     654 calls)

     General routines
     calbec       :      0.35s CPU      0.39s WALL (     694 calls)
     fft          :     25.60s CPU      6.56s WALL (     185 calls)
                                        0.01s GPU  (       6 calls)
     ffts         :      2.59s CPU      0.68s WALL (      16 calls)
     fftw         :      0.65s CPU     62.61s WALL (   10512 calls)
                                       46.78s GPU  (   10512 calls)
 
     Parallel routines
 
     PWSCF        :   4m22.19s CPU   4m25.63s WALL

 
   This run was terminated on:  21: 3: 1  22Apr2021            

=------------------------------------------------------------------------------=
   JOB DONE.
=------------------------------------------------------------------------------=
