
     Program PWSCF v.6.7MaX starts on 22Apr2021 at 23:52:49 

     This program is part of the open-source Quantum ESPRESSO suite
     for quantum simulation of materials; please cite
         "P. Giannozzi et al., J. Phys.:Condens. Matter 21 395502 (2009);
         "P. Giannozzi et al., J. Phys.:Condens. Matter 29 465901 (2017);
         "P. Giannozzi et al., J. Chem. Phys. 152 154105 (2020);
          URL http://www.quantum-espresso.org", 
     in publications or presentations arising from this work. More details at
     http://www.quantum-espresso.org/quote

     Parallel version (MPI & OpenMP), running on      16 processor cores
     Number of MPI processes:                 4
     Threads/MPI process:                     4

     MPI processes distributed on     1 nodes
     K-points division:     npool     =       4
     Reading input from ESP_38.pwi
Warning: card &CELL ignored
Warning: card / ignored

     Current dimensions of program PWSCF are:
     Max number of different atomic species (ntypx) = 10
     Max number of k-points (npk) =  40000
     Max angular momentum in pseudopotentials (lmaxx) =  3
     Message from routine read_pp_mesh:
     mesh size missing, using the one in header
     Message from routine read_pp_mesh:
     mesh size missing, using the one in header
     Message from routine read_pp_mesh:
     mesh size missing, using the one in header

     Subspace diagonalization in iterative solution of the eigenvalue problem:
     a serial algorithm will be used

 
     G-vector sticks info
     --------------------
     sticks:   dense  smooth     PW     G-vecs:    dense   smooth      PW
     Sum       12589   12589   3289              1061107  1061107  140905
 
     Using Slab Decomposition
 


     bravais-lattice index     =            0
     lattice parameter (alat)  =      23.7585  a.u.
     unit-cell volume          =   13410.8736 (a.u.)^3
     number of atoms/cell      =           40
     number of atomic types    =            3
     number of electrons       =       352.00
     number of Kohn-Sham states=          176
     kinetic-energy cutoff     =      70.0000  Ry
     charge density cutoff     =     280.0000  Ry
     scf convergence threshold =      1.0E-10
     mixing beta               =       0.7000
     number of iterations used =            8  plain     mixing
     Exchange-correlation= PBESOL
                           (   1   4  10   8   0   0   0)

     GPU acceleration is ACTIVE.


     celldm(1)=  23.758500  celldm(2)=   0.000000  celldm(3)=   0.000000
     celldm(4)=   0.000000  celldm(5)=   0.000000  celldm(6)=   0.000000

     crystal axes: (cart. coord. in units of alat)
               a(1) = (   1.000000   0.000000   0.000000 )  
               a(2) = (   0.000000   1.000000   0.000000 )  
               a(3) = (   0.000000   0.000000   1.000000 )  

     reciprocal axes: (cart. coord. in units 2 pi/alat)
               b(1) = (  1.000000  0.000000  0.000000 )  
               b(2) = (  0.000000  1.000000  0.000000 )  
               b(3) = (  0.000000  0.000000  1.000000 )  


     PseudoPot. # 1 for Cs read from file:
     /m100/home/userexternal/lmonacel/espresso/pseudo/Cs-nc-pbesol.upf
     MD5 check sum: 9d2f2206a14dc5b3b3f3fbfae186bed4
     Pseudo is Norm-conserving + core correction, Zval =  9.0
     Generated using ONCVPSP code by D. R. Hamann
     Using radial grid of 2384 points,  8 beta functions with: 
                l(1) =   0
                l(2) =   0
                l(3) =   1
                l(4) =   1
                l(5) =   2
                l(6) =   2
                l(7) =   3
                l(8) =   3

     PseudoPot. # 2 for Sn read from file:
     /m100/home/userexternal/lmonacel/espresso/pseudo/Sn-nc-pbesol.upf
     MD5 check sum: c2995d571af40102bfea7461443d92cf
     Pseudo is Norm-conserving + core correction, Zval = 14.0
     Generated using ONCVPSP code by D. R. Hamann
     Using radial grid of 1628 points,  6 beta functions with: 
                l(1) =   0
                l(2) =   0
                l(3) =   1
                l(4) =   1
                l(5) =   2
                l(6) =   2

     PseudoPot. # 3 for I  read from file:
     /m100/home/userexternal/lmonacel/espresso/pseudo/I-nc-pbesol.upf
     MD5 check sum: 80ed5ceb2eb9c553cfb6760a299d9c5b
     Pseudo is Norm-conserving + core correction, Zval =  7.0
     Generated using ONCVPSP code by D. R. Hamann
     Using radial grid of 1182 points,  6 beta functions with: 
                l(1) =   0
                l(2) =   0
                l(3) =   1
                l(4) =   1
                l(5) =   2
                l(6) =   2

     atomic species   valence    mass     pseudopotential
        Cs             9.00   132.90545     Cs( 1.00)
        Sn            14.00   118.71000     Sn( 1.00)
        I              7.00   126.90447     I ( 1.00)

     No symmetry found



   Cartesian axes

     site n.     atom                  positions (alat units)
         1           Cs  tau(   1) = (   0.2292680   0.2566510   0.2411565  )
         2           Sn  tau(   2) = (   0.0181026  -0.0018434  -0.0089048  )
         3           I   tau(   3) = (   0.2468758   0.0139259  -0.0081964  )
         4           I   tau(   4) = (   0.0020580  -0.0303897   0.2421163  )
         5           I   tau(   5) = (  -0.0453395   0.2418909   0.0168742  )
         6           Cs  tau(   6) = (   0.2769871   0.2432315   0.7483938  )
         7           Sn  tau(   7) = (   0.0121407   0.0178620   0.4904083  )
         8           I   tau(   8) = (   0.2552337   0.0430194   0.4647920  )
         9           I   tau(   9) = (   0.0234980  -0.0282800   0.7539156  )
        10           I   tau(  10) = (  -0.0175097   0.2495424   0.5094278  )
        11           Cs  tau(  11) = (   0.2522297   0.7509895   0.2569086  )
        12           Sn  tau(  12) = (  -0.0024855   0.4842044  -0.0059228  )
        13           I   tau(  13) = (   0.2564207   0.4718354   0.0046587  )
        14           I   tau(  14) = (  -0.0148346   0.4816805   0.2517835  )
        15           I   tau(  15) = (  -0.0296146   0.7503801   0.0403666  )
        16           Cs  tau(  16) = (   0.2477678   0.7472742   0.7654602  )
        17           Sn  tau(  17) = (  -0.0144831   0.5087261   0.5015421  )
        18           I   tau(  18) = (   0.2520948   0.4856738   0.4933361  )
        19           I   tau(  19) = (   0.0257275   0.5160311   0.7501138  )
        20           I   tau(  20) = (   0.0342372   0.7613582   0.4745314  )
        21           Cs  tau(  21) = (   0.7592951   0.2400089   0.2394389  )
        22           Sn  tau(  22) = (   0.5237075   0.0271742  -0.0249252  )
        23           I   tau(  23) = (   0.7503038  -0.0046516  -0.0285159  )
        24           I   tau(  24) = (   0.5289904   0.0311817   0.2383573  )
        25           I   tau(  25) = (   0.5108044   0.2533343  -0.0276726  )
        26           Cs  tau(  26) = (   0.7233480   0.2394306   0.7700687  )
        27           Sn  tau(  27) = (   0.5105512   0.0109400   0.4957526  )
        28           I   tau(  28) = (   0.7544703  -0.0085711   0.4936136  )
        29           I   tau(  29) = (   0.4960656  -0.0143542   0.7463797  )
        30           I   tau(  30) = (   0.5330428   0.2474512   0.5128269  )
        31           Cs  tau(  31) = (   0.7620370   0.7557521   0.2413914  )
        32           Sn  tau(  32) = (   0.4784522   0.5228032   0.0139893  )
        33           I   tau(  33) = (   0.7461972   0.5016584  -0.0294508  )
        34           I   tau(  34) = (   0.5565457   0.5077882   0.2629034  )
        35           I   tau(  35) = (   0.4822307   0.7596395  -0.0035672  )
        36           Cs  tau(  36) = (   0.7349651   0.7185220   0.7540033  )
        37           Sn  tau(  37) = (   0.4859727   0.5074642   0.5196775  )
        38           I   tau(  38) = (   0.7464201   0.5164418   0.5341103  )
        39           I   tau(  39) = (   0.4653942   0.4832660   0.7717667  )
        40           I   tau(  40) = (   0.4442705   0.7482275   0.5351082  )

     number of k points=    32
                       cart. coord. in units 2pi/alat
        k(    1) = (   0.1250000   0.1250000   0.1250000), wk =   0.0625000
        k(    2) = (   0.1250000   0.1250000   0.3750000), wk =   0.0625000
        k(    3) = (   0.1250000   0.3750000   0.3750000), wk =   0.0625000
        k(    4) = (   0.3750000   0.3750000   0.3750000), wk =   0.0625000
        k(    5) = (  -0.1250000  -0.1250000   0.1250000), wk =   0.0625000
        k(    6) = (  -0.1250000   0.1250000  -0.1250000), wk =   0.0625000
        k(    7) = (   0.1250000  -0.1250000  -0.1250000), wk =   0.0625000
        k(    8) = (  -0.1250000  -0.1250000   0.3750000), wk =   0.0625000
        k(    9) = (  -0.1250000   0.1250000  -0.3750000), wk =   0.0625000
        k(   10) = (   0.1250000  -0.1250000  -0.3750000), wk =   0.0625000
        k(   11) = (   0.3750000  -0.1250000   0.1250000), wk =   0.0625000
        k(   12) = (  -0.3750000  -0.1250000  -0.1250000), wk =   0.0625000
        k(   13) = (   0.3750000   0.1250000  -0.1250000), wk =   0.0625000
        k(   14) = (  -0.3750000   0.1250000   0.1250000), wk =   0.0625000
        k(   15) = (  -0.1250000   0.3750000   0.1250000), wk =   0.0625000
        k(   16) = (  -0.1250000  -0.3750000  -0.1250000), wk =   0.0625000
        k(   17) = (   0.1250000   0.3750000  -0.1250000), wk =   0.0625000
        k(   18) = (   0.1250000  -0.3750000   0.1250000), wk =   0.0625000
        k(   19) = (  -0.1250000  -0.3750000   0.3750000), wk =   0.0625000
        k(   20) = (  -0.1250000   0.3750000  -0.3750000), wk =   0.0625000
        k(   21) = (   0.1250000  -0.3750000  -0.3750000), wk =   0.0625000
        k(   22) = (   0.3750000   0.1250000  -0.3750000), wk =   0.0625000
        k(   23) = (  -0.3750000  -0.1250000  -0.3750000), wk =   0.0625000
        k(   24) = (   0.3750000  -0.1250000   0.3750000), wk =   0.0625000
        k(   25) = (  -0.3750000   0.1250000   0.3750000), wk =   0.0625000
        k(   26) = (   0.3750000  -0.3750000   0.1250000), wk =   0.0625000
        k(   27) = (  -0.3750000  -0.3750000  -0.1250000), wk =   0.0625000
        k(   28) = (   0.3750000   0.3750000  -0.1250000), wk =   0.0625000
        k(   29) = (  -0.3750000   0.3750000   0.1250000), wk =   0.0625000
        k(   30) = (  -0.3750000  -0.3750000   0.3750000), wk =   0.0625000
        k(   31) = (  -0.3750000   0.3750000  -0.3750000), wk =   0.0625000
        k(   32) = (   0.3750000  -0.3750000  -0.3750000), wk =   0.0625000

     Dense  grid:  1061107 G-vectors     FFT dimensions: ( 128, 128, 128)

     Estimated max dynamical RAM per process >       6.82 GB

     Estimated total dynamical RAM >      27.27 GB

     Initial potential from superposition of free atoms

     starting charge  351.69472, renormalised to  352.00000
     Starting wfcs are  208 randomized atomic wfcs

     total cpu time spent up to now is       17.7 secs

     Self-consistent Calculation

     iteration #  1     ecut=    70.00 Ry     beta= 0.70
     Davidson diagonalization with overlap
     ethr =  1.00E-02,  avg # of iterations =  2.0

     Threshold (ethr) on eigenvalues was too large:
     Diagonalizing with lowered threshold

     Davidson diagonalization with overlap
     ethr =  2.22E-04,  avg # of iterations =  4.0

     total cpu time spent up to now is       38.8 secs

     total energy              =   -2256.00688078 Ry
     estimated scf accuracy    <       0.67821216 Ry

     iteration #  2     ecut=    70.00 Ry     beta= 0.70
     Davidson diagonalization with overlap
     ethr =  1.93E-04,  avg # of iterations =  3.3

     total cpu time spent up to now is       51.7 secs

     total energy              =   -2256.20137858 Ry
     estimated scf accuracy    <       0.37640929 Ry

     iteration #  3     ecut=    70.00 Ry     beta= 0.70
     Davidson diagonalization with overlap
     ethr =  1.07E-04,  avg # of iterations =  3.0

     total cpu time spent up to now is       63.6 secs

     total energy              =   -2256.27601506 Ry
     estimated scf accuracy    <       0.03873830 Ry

     iteration #  4     ecut=    70.00 Ry     beta= 0.70
     Davidson diagonalization with overlap
     ethr =  1.10E-05,  avg # of iterations =  4.0

     total cpu time spent up to now is       76.3 secs

     total energy              =   -2256.28775316 Ry
     estimated scf accuracy    <       0.00403927 Ry

     iteration #  5     ecut=    70.00 Ry     beta= 0.70
     Davidson diagonalization with overlap
     ethr =  1.15E-06,  avg # of iterations =  3.9

     total cpu time spent up to now is       89.2 secs

     total energy              =   -2256.28856424 Ry
     estimated scf accuracy    <       0.00130685 Ry

     iteration #  6     ecut=    70.00 Ry     beta= 0.70
     Davidson diagonalization with overlap
     ethr =  3.71E-07,  avg # of iterations =  3.0

     total cpu time spent up to now is      101.4 secs

     total energy              =   -2256.28879907 Ry
     estimated scf accuracy    <       0.00015811 Ry

     iteration #  7     ecut=    70.00 Ry     beta= 0.70
     Davidson diagonalization with overlap
     ethr =  4.49E-08,  avg # of iterations =  4.2

     total cpu time spent up to now is      115.2 secs

     total energy              =   -2256.28884845 Ry
     estimated scf accuracy    <       0.00002368 Ry

     iteration #  8     ecut=    70.00 Ry     beta= 0.70
     Davidson diagonalization with overlap
     ethr =  6.73E-09,  avg # of iterations =  4.0

     total cpu time spent up to now is      128.7 secs

     total energy              =   -2256.28885608 Ry
     estimated scf accuracy    <       0.00000500 Ry

     iteration #  9     ecut=    70.00 Ry     beta= 0.70
     Davidson diagonalization with overlap
     ethr =  1.42E-09,  avg # of iterations =  4.0

     total cpu time spent up to now is      142.4 secs

     total energy              =   -2256.28885787 Ry
     estimated scf accuracy    <       0.00000079 Ry

     iteration # 10     ecut=    70.00 Ry     beta= 0.70
     Davidson diagonalization with overlap
     ethr =  2.25E-10,  avg # of iterations =  3.4

     total cpu time spent up to now is      156.0 secs

     total energy              =   -2256.28885806 Ry
     estimated scf accuracy    <       0.00000020 Ry

     iteration # 11     ecut=    70.00 Ry     beta= 0.70
     Davidson diagonalization with overlap
     ethr =  5.72E-11,  avg # of iterations =  4.4

     total cpu time spent up to now is      170.5 secs

     total energy              =   -2256.28885814 Ry
     estimated scf accuracy    <       0.00000003 Ry

     iteration # 12     ecut=    70.00 Ry     beta= 0.70
     Davidson diagonalization with overlap
     ethr =  8.51E-12,  avg # of iterations =  6.2

     total cpu time spent up to now is      187.2 secs

     total energy              =   -2256.28885816 Ry
     estimated scf accuracy    <       0.00000002 Ry

     iteration # 13     ecut=    70.00 Ry     beta= 0.70
     Davidson diagonalization with overlap
     ethr =  5.12E-12,  avg # of iterations =  3.3

     total cpu time spent up to now is      199.9 secs

     total energy              =   -2256.28885816 Ry
     estimated scf accuracy    <          1.6E-09 Ry

     iteration # 14     ecut=    70.00 Ry     beta= 0.70
     Davidson diagonalization with overlap
     ethr =  4.61E-13,  avg # of iterations =  5.4

     total cpu time spent up to now is      216.2 secs

     total energy              =   -2256.28885817 Ry
     estimated scf accuracy    <          1.8E-10 Ry

     iteration # 15     ecut=    70.00 Ry     beta= 0.70
     Davidson diagonalization with overlap
     ethr =  1.00E-13,  avg # of iterations =  4.2

     total cpu time spent up to now is      230.0 secs

     End of self-consistent calculation

          k = 0.1250 0.1250 0.1250 (132670 PWs)   bands (ev):

   -18.4862 -18.4619 -18.4604 -18.3484 -18.3442 -18.3419 -18.3409 -18.3361
   -18.3346 -18.3278 -18.3252 -18.3198 -18.3142 -18.3117 -18.2965 -18.2889
   -18.2834 -18.2776 -18.2745 -18.2732 -18.2708 -18.2676 -18.2664 -18.2583
   -18.2581 -18.2519 -18.2250 -18.2213 -18.2133 -18.2095 -18.2040 -18.2005
   -18.1904 -18.1891 -18.1884 -18.1814 -18.1741 -18.1672 -18.1121 -18.1112
   -18.1037 -18.0977 -18.0921 -18.0896 -18.0797 -18.0761 -18.0735 -18.0704
    -9.5901  -9.4336  -9.2608  -9.2212  -9.1799  -9.0949  -9.0895  -9.0363
    -9.0228  -8.9838  -8.9651  -8.9369  -8.8943  -8.8740  -8.8436  -8.7946
    -8.7657  -8.7524  -8.7011  -8.6562  -8.5875  -8.5598  -8.4784  -8.4651
    -5.2650  -5.2538  -5.2473  -5.2407  -5.2342  -5.2318  -5.2251  -5.2128
    -5.2082  -5.1220  -5.1183  -5.1057  -5.1030  -5.0728  -5.0661  -5.0602
    -5.0486  -5.0427  -4.9964  -4.9860  -4.9796  -4.9698  -4.9674  -4.9549
    -4.4126  -3.9503  -3.9208  -3.8297  -3.4187  -3.3667  -3.3216  -2.7964
    -0.8228  -0.7058  -0.6358  -0.6131  -0.5350  -0.5104  -0.4433  -0.3740
    -0.3534  -0.2783  -0.2259  -0.1959   0.3432   0.4044   0.4527   0.5840
     0.6176   0.6683   0.7070   0.7543   0.7853   0.8354   0.8835   0.9503
     0.9699   1.0183   1.0531   1.0843   1.1012   1.1366   1.1663   1.1808
     1.2085   1.2238   1.2730   1.2820   1.3020   1.3252   1.3533   1.3693
     1.4025   1.4252   1.4437   1.4754   1.5028   1.5193   1.5438   1.5672
     1.5735   1.6101   1.6354   1.6581   1.6749   1.7018   1.7081   1.7327
     1.7614   1.7838   1.8405   1.9183   1.9772   2.0215   2.0378   2.1190
     2.1368   2.1897   2.2887   2.3317   2.5957   2.7406   2.7822   3.1284

          k = 0.1250 0.1250 0.3750 (132608 PWs)   bands (ev):

   -18.4862 -18.4619 -18.4604 -18.3484 -18.3442 -18.3419 -18.3409 -18.3361
   -18.3346 -18.3278 -18.3252 -18.3198 -18.3142 -18.3117 -18.2965 -18.2889
   -18.2833 -18.2776 -18.2746 -18.2732 -18.2708 -18.2676 -18.2664 -18.2583
   -18.2581 -18.2519 -18.2250 -18.2213 -18.2133 -18.2095 -18.2040 -18.2005
   -18.1904 -18.1891 -18.1884 -18.1814 -18.1741 -18.1672 -18.1121 -18.1112
   -18.1037 -18.0977 -18.0921 -18.0896 -18.0797 -18.0761 -18.0735 -18.0704
    -9.5883  -9.4304  -9.2574  -9.2270  -9.1800  -9.0994  -9.0870  -9.0497
    -9.0257  -8.9924  -8.9638  -8.9281  -8.8921  -8.8745  -8.8413  -8.7952
    -8.7621  -8.7494  -8.6911  -8.6534  -8.5832  -8.5637  -8.4805  -8.4723
    -5.2646  -5.2539  -5.2463  -5.2395  -5.2345  -5.2315  -5.2265  -5.2134
    -5.2082  -5.1220  -5.1183  -5.1057  -5.1029  -5.0725  -5.0659  -5.0597
    -5.0486  -5.0428  -4.9965  -4.9865  -4.9798  -4.9700  -4.9678  -4.9552
    -4.3026  -4.0624  -3.8359  -3.7296  -3.5586  -3.4952  -3.2570  -2.9773
    -0.7980  -0.6981  -0.6055  -0.5772  -0.5211  -0.4483  -0.3729  -0.3091
    -0.1040  -0.0349   0.0206   0.1071   0.3220   0.3939   0.4721   0.5329
     0.5518   0.5860   0.6338   0.6806   0.7183   0.7284   0.7790   0.8083
     0.8963   0.9346   0.9406   1.0495   1.0749   1.0895   1.1304   1.1521
     1.1626   1.2008   1.2320   1.2734   1.2968   1.3367   1.3609   1.3717
     1.4101   1.4350   1.4684   1.4882   1.5047   1.5267   1.5630   1.5863
     1.5935   1.6200   1.6316   1.6712   1.6857   1.7167   1.7297   1.7488
     1.7825   1.8082   1.8587   1.8895   1.9030   1.9598   2.0108   2.0256
     2.0870   2.1661   2.2026   2.3280   2.3991   2.5166   2.7452   2.8865

          k = 0.1250 0.3750 0.3750 (132616 PWs)   bands (ev):

   -18.4862 -18.4619 -18.4604 -18.3484 -18.3442 -18.3419 -18.3409 -18.3361
   -18.3346 -18.3278 -18.3252 -18.3198 -18.3142 -18.3117 -18.2965 -18.2889
   -18.2833 -18.2776 -18.2746 -18.2732 -18.2708 -18.2676 -18.2664 -18.2583
   -18.2581 -18.2519 -18.2250 -18.2213 -18.2133 -18.2095 -18.2039 -18.2005
   -18.1904 -18.1891 -18.1884 -18.1814 -18.1741 -18.1672 -18.1121 -18.1112
   -18.1037 -18.0977 -18.0921 -18.0896 -18.0797 -18.0761 -18.0735 -18.0704
    -9.5785  -9.4455  -9.2435  -9.2217  -9.1929  -9.0948  -9.0898  -9.0745
    -9.0227  -8.9916  -8.9588  -8.9247  -8.9031  -8.8712  -8.8254  -8.7884
    -8.7575  -8.7483  -8.6935  -8.6567  -8.5814  -8.5660  -8.4811  -8.4760
    -5.2647  -5.2535  -5.2464  -5.2387  -5.2374  -5.2292  -5.2269  -5.2132
    -5.2082  -5.1220  -5.1181  -5.1063  -5.1025  -5.0719  -5.0658  -5.0601
    -5.0492  -5.0432  -4.9966  -4.9857  -4.9797  -4.9715  -4.9680  -4.9546
    -4.1920  -3.9732  -3.9503  -3.7221  -3.6200  -3.4094  -3.3893  -3.1466
    -0.7093  -0.6928  -0.5671  -0.4447  -0.3938  -0.3001  -0.1771  -0.1288
    -0.0596   0.0193   0.1436   0.1975   0.2489   0.3839   0.4482   0.4859
     0.5147   0.5208   0.5687   0.6367   0.6447   0.6706   0.7134   0.7763
     0.8345   0.8777   0.8933   0.9401   0.9981   1.0324   1.0480   1.0848
     1.1141   1.1737   1.2179   1.2443   1.2795   1.3109   1.3569   1.3648
     1.4262   1.4376   1.4732   1.4895   1.5180   1.5493   1.5883   1.6078
     1.6146   1.6420   1.6705   1.6864   1.6983   1.7264   1.7487   1.7963
     1.8054   1.8238   1.8563   1.8670   1.8956   1.9288   1.9787   2.0314
     2.0594   2.1093   2.1341   2.2715   2.2991   2.4553   2.4875   2.6698

          k = 0.3750 0.3750 0.3750 (132612 PWs)   bands (ev):

   -18.4862 -18.4619 -18.4604 -18.3484 -18.3442 -18.3419 -18.3409 -18.3361
   -18.3346 -18.3278 -18.3252 -18.3198 -18.3142 -18.3117 -18.2965 -18.2889
   -18.2833 -18.2776 -18.2746 -18.2732 -18.2708 -18.2676 -18.2664 -18.2583
   -18.2581 -18.2519 -18.2250 -18.2213 -18.2133 -18.2095 -18.2039 -18.2005
   -18.1904 -18.1891 -18.1884 -18.1814 -18.1741 -18.1672 -18.1120 -18.1112
   -18.1037 -18.0977 -18.0921 -18.0896 -18.0797 -18.0761 -18.0735 -18.0704
    -9.5744  -9.4425  -9.2577  -9.2107  -9.1813  -9.1368  -9.0943  -9.0666
    -9.0353  -8.9793  -8.9468  -8.9185  -8.9048  -8.8726  -8.8121  -8.7796
    -8.7595  -8.7488  -8.7011  -8.6571  -8.5846  -8.5635  -8.4841  -8.4756
    -5.2648  -5.2535  -5.2463  -5.2387  -5.2373  -5.2294  -5.2270  -5.2134
    -5.2083  -5.1217  -5.1181  -5.1064  -5.1025  -5.0721  -5.0659  -5.0604
    -5.0491  -5.0427  -4.9965  -4.9855  -4.9796  -4.9710  -4.9679  -4.9546
    -4.0759  -3.9102  -3.8346  -3.7555  -3.6180  -3.5732  -3.5213  -3.3362
    -0.5423  -0.4335  -0.3440  -0.3117  -0.2436  -0.1743  -0.0948  -0.0727
     0.0027   0.0439   0.1263   0.1820   0.2591   0.2862   0.3985   0.4331
     0.4543   0.5129   0.5481   0.5769   0.5930   0.6432   0.6792   0.7352
     0.8053   0.8300   0.8710   0.9510   0.9800   1.0145   1.0511   1.0690
     1.0944   1.1249   1.1488   1.2048   1.2086   1.2288   1.2706   1.3201
     1.3527   1.4080   1.4510   1.4680   1.5286   1.5710   1.6035   1.6171
     1.6374   1.6700   1.6933   1.7035   1.7339   1.7487   1.7733   1.7950
     1.8150   1.8352   1.8638   1.8745   1.9109   1.9315   1.9569   1.9869
     2.0034   2.0389   2.0707   2.1127   2.1649   2.2693   2.3235   2.4606

          k =-0.1250-0.1250 0.1250 (132670 PWs)   bands (ev):

   -18.4862 -18.4619 -18.4604 -18.3484 -18.3442 -18.3419 -18.3409 -18.3361
   -18.3346 -18.3278 -18.3252 -18.3198 -18.3142 -18.3117 -18.2965 -18.2889
   -18.2834 -18.2776 -18.2745 -18.2732 -18.2708 -18.2676 -18.2664 -18.2583
   -18.2581 -18.2519 -18.2250 -18.2213 -18.2133 -18.2095 -18.2040 -18.2005
   -18.1904 -18.1891 -18.1884 -18.1814 -18.1741 -18.1672 -18.1121 -18.1112
   -18.1037 -18.0977 -18.0921 -18.0896 -18.0797 -18.0761 -18.0735 -18.0704
    -9.5901  -9.4338  -9.2592  -9.2212  -9.1824  -9.0976  -9.0886  -9.0277
    -9.0232  -8.9913  -8.9638  -8.9325  -8.9025  -8.8710  -8.8427  -8.7941
    -8.7655  -8.7517  -8.7019  -8.6568  -8.5869  -8.5602  -8.4783  -8.4651
    -5.2650  -5.2539  -5.2475  -5.2408  -5.2346  -5.2308  -5.2248  -5.2132
    -5.2083  -5.1221  -5.1183  -5.1057  -5.1029  -5.0727  -5.0661  -5.0602
    -5.0486  -5.0428  -4.9964  -4.9860  -4.9797  -4.9698  -4.9675  -4.9548
    -4.4123  -3.9558  -3.9188  -3.8238  -3.4318  -3.3596  -3.3177  -2.7973
    -0.8140  -0.7081  -0.6340  -0.6101  -0.5576  -0.5102  -0.4276  -0.3789
    -0.3260  -0.2847  -0.2530  -0.1993   0.3515   0.4075   0.4491   0.5864
     0.6213   0.6606   0.7070   0.7612   0.7925   0.8392   0.8792   0.9251
     0.9983   1.0289   1.0491   1.0844   1.1028   1.1250   1.1441   1.1838
     1.2073   1.2423   1.2500   1.2899   1.3071   1.3371   1.3614   1.3731
     1.3952   1.4143   1.4515   1.4838   1.4973   1.5160   1.5377   1.5584
     1.5929   1.6131   1.6442   1.6616   1.6721   1.6869   1.7030   1.7318
     1.7559   1.7678   1.8364   1.9140   1.9712   2.0329   2.0425   2.1305
     2.1367   2.1971   2.2877   2.3378   2.5924   2.6862   2.8124   3.1454

          k =-0.1250 0.1250-0.1250 (132670 PWs)   bands (ev):

   -18.4862 -18.4619 -18.4604 -18.3484 -18.3442 -18.3419 -18.3409 -18.3361
   -18.3346 -18.3278 -18.3252 -18.3198 -18.3142 -18.3117 -18.2965 -18.2889
   -18.2834 -18.2776 -18.2745 -18.2732 -18.2708 -18.2676 -18.2664 -18.2583
   -18.2581 -18.2519 -18.2250 -18.2213 -18.2133 -18.2095 -18.2040 -18.2005
   -18.1904 -18.1891 -18.1884 -18.1814 -18.1741 -18.1672 -18.1121 -18.1112
   -18.1037 -18.0977 -18.0921 -18.0896 -18.0797 -18.0761 -18.0735 -18.0704
    -9.5902  -9.4335  -9.2600  -9.2196  -9.1835  -9.0969  -9.0861  -9.0441
    -9.0121  -8.9845  -8.9674  -8.9338  -8.9029  -8.8695  -8.8405  -8.8001
    -8.7633  -8.7510  -8.7012  -8.6565  -8.5882  -8.5594  -8.4784  -8.4650
    -5.2650  -5.2539  -5.2475  -5.2409  -5.2346  -5.2307  -5.2248  -5.2131
    -5.2083  -5.1220  -5.1183  -5.1059  -5.1029  -5.0724  -5.0663  -5.0602
    -5.0487  -5.0427  -4.9964  -4.9860  -4.9797  -4.9699  -4.9674  -4.9548
    -4.4131  -3.9430  -3.9254  -3.8325  -3.4140  -3.3655  -3.3276  -2.7957
    -0.8302  -0.6931  -0.6406  -0.5962  -0.5609  -0.4986  -0.4587  -0.3499
    -0.3344  -0.2848  -0.2498  -0.2056   0.3538   0.4035   0.4507   0.5813
     0.6243   0.6662   0.6924   0.7523   0.8032   0.8678   0.8900   0.9449
     0.9725   1.0042   1.0376   1.0578   1.1067   1.1421   1.1654   1.1768
     1.2029   1.2359   1.2547   1.2810   1.3018   1.3303   1.3521   1.3936
     1.4106   1.4298   1.4541   1.4747   1.4948   1.5096   1.5324   1.5638
     1.5986   1.6157   1.6335   1.6622   1.6773   1.6954   1.7060   1.7208
     1.7524   1.7781   1.8306   1.9206   1.9816   2.0158   2.0489   2.1231
     2.1372   2.1967   2.2809   2.3376   2.5973   2.6885   2.8166   3.1404

          k = 0.1250-0.1250-0.1250 (132670 PWs)   bands (ev):

   -18.4862 -18.4619 -18.4604 -18.3484 -18.3442 -18.3419 -18.3409 -18.3361
   -18.3346 -18.3278 -18.3252 -18.3198 -18.3142 -18.3117 -18.2965 -18.2889
   -18.2834 -18.2776 -18.2745 -18.2732 -18.2708 -18.2676 -18.2664 -18.2583
   -18.2581 -18.2519 -18.2250 -18.2213 -18.2133 -18.2095 -18.2040 -18.2005
   -18.1904 -18.1891 -18.1884 -18.1814 -18.1741 -18.1672 -18.1121 -18.1112
   -18.1037 -18.0977 -18.0921 -18.0896 -18.0797 -18.0761 -18.0735 -18.0704
    -9.5901  -9.4337  -9.2571  -9.2248  -9.1804  -9.0965  -9.0878  -9.0386
    -9.0216  -8.9829  -8.9649  -8.9335  -8.8967  -8.8754  -8.8411  -8.7961
    -8.7700  -8.7494  -8.6997  -8.6556  -8.5890  -8.5594  -8.4782  -8.4651
    -5.2650  -5.2539  -5.2472  -5.2407  -5.2341  -5.2318  -5.2251  -5.2128
    -5.2082  -5.1221  -5.1182  -5.1060  -5.1029  -5.0724  -5.0662  -5.0601
    -5.0488  -5.0428  -4.9965  -4.9860  -4.9796  -4.9699  -4.9674  -4.9549
    -4.4130  -3.9487  -3.9242  -3.8257  -3.4267  -3.3577  -3.3247  -2.7961
    -0.8272  -0.6981  -0.6275  -0.5988  -0.5530  -0.5343  -0.4161  -0.3884
    -0.3450  -0.2826  -0.2333  -0.1946   0.3477   0.4038   0.4475   0.5882
     0.6158   0.6679   0.7089   0.7527   0.8145   0.8612   0.8854   0.9258
     0.9547   0.9962   1.0579   1.0772   1.0913   1.1158   1.1644   1.1905
     1.2188   1.2377   1.2658   1.2978   1.3122   1.3259   1.3606   1.3794
     1.3917   1.4248   1.4525   1.4681   1.4909   1.5153   1.5391   1.5664
     1.5853   1.6017   1.6455   1.6638   1.6810   1.6971   1.7100   1.7241
     1.7622   1.7778   1.8323   1.9198   1.9802   2.0195   2.0379   2.1241
     2.1305   2.1826   2.2972   2.3358   2.6205   2.6904   2.7766   3.1612

          k =-0.1250-0.1250 0.3750 (132608 PWs)   bands (ev):

   -18.4862 -18.4619 -18.4604 -18.3484 -18.3442 -18.3419 -18.3409 -18.3361
   -18.3346 -18.3278 -18.3252 -18.3198 -18.3142 -18.3117 -18.2965 -18.2889
   -18.2833 -18.2776 -18.2746 -18.2732 -18.2708 -18.2676 -18.2664 -18.2583
   -18.2581 -18.2519 -18.2250 -18.2213 -18.2133 -18.2095 -18.2039 -18.2005
   -18.1904 -18.1891 -18.1884 -18.1814 -18.1741 -18.1672 -18.1121 -18.1112
   -18.1037 -18.0977 -18.0921 -18.0896 -18.0797 -18.0761 -18.0735 -18.0704
    -9.5883  -9.4305  -9.2548  -9.2284  -9.1821  -9.0992  -9.0898  -9.0428
    -9.0227  -9.0004  -8.9618  -8.9250  -8.8996  -8.8712  -8.8407  -8.7951
    -8.7617  -8.7490  -8.6911  -8.6542  -8.5829  -8.5639  -8.4804  -8.4723
    -5.2646  -5.2540  -5.2465  -5.2398  -5.2351  -5.2303  -5.2263  -5.2139
    -5.2082  -5.1221  -5.1183  -5.1057  -5.1029  -5.0725  -5.0658  -5.0597
    -5.0485  -5.0429  -4.9965  -4.9866  -4.9799  -4.9700  -4.9678  -4.9551
    -4.3017  -4.0658  -3.8317  -3.7252  -3.5679  -3.4950  -3.2523  -2.9791
    -0.7898  -0.7004  -0.6074  -0.5821  -0.5251  -0.4415  -0.3641  -0.3141
    -0.0951  -0.0473   0.0255   0.0677   0.3512   0.4134   0.4567   0.5098
     0.5472   0.6141   0.6526   0.6783   0.7099   0.7215   0.7791   0.8521
     0.8614   0.9287   0.9801   1.0451   1.0642   1.0841   1.1031   1.1278
     1.1676   1.1973   1.2328   1.2746   1.3081   1.3430   1.3587   1.3769
     1.4178   1.4382   1.4688   1.4981   1.5033   1.5386   1.5478   1.5747
     1.6084   1.6239   1.6396   1.6672   1.6790   1.6977   1.7249   1.7562
     1.7760   1.8148   1.8464   1.8648   1.9057   1.9659   2.0204   2.0464
     2.0919   2.1579   2.2311   2.3022   2.3951   2.5039   2.7362   2.9092

          k =-0.1250 0.1250-0.3750 (132608 PWs)   bands (ev):

   -18.4862 -18.4619 -18.4604 -18.3484 -18.3442 -18.3419 -18.3409 -18.3361
   -18.3346 -18.3278 -18.3252 -18.3198 -18.3142 -18.3117 -18.2965 -18.2889
   -18.2833 -18.2776 -18.2746 -18.2732 -18.2708 -18.2676 -18.2664 -18.2583
   -18.2581 -18.2519 -18.2250 -18.2213 -18.2133 -18.2095 -18.2040 -18.2005
   -18.1904 -18.1891 -18.1884 -18.1814 -18.1741 -18.1672 -18.1121 -18.1112
   -18.1037 -18.0977 -18.0921 -18.0896 -18.0797 -18.0761 -18.0735 -18.0704
    -9.5884  -9.4302  -9.2590  -9.2218  -9.1840  -9.1000  -9.0873  -9.0546
    -9.0170  -8.9922  -8.9659  -8.9269  -8.8985  -8.8696  -8.8389  -8.8011
    -8.7591  -8.7484  -8.6914  -8.6536  -8.5837  -8.5635  -8.4806  -8.4721
    -5.2646  -5.2540  -5.2465  -5.2398  -5.2350  -5.2303  -5.2263  -5.2138
    -5.2083  -5.1220  -5.1183  -5.1058  -5.1029  -5.0721  -5.0660  -5.0597
    -5.0487  -5.0428  -4.9965  -4.9866  -4.9799  -4.9700  -4.9677  -4.9551
    -4.3034  -4.0631  -3.8273  -3.7365  -3.5562  -3.4993  -3.2558  -2.9771
    -0.8082  -0.6810  -0.6031  -0.5662  -0.5444  -0.4463  -0.3687  -0.3086
    -0.0970  -0.0369   0.0154   0.0764   0.3525   0.4009   0.4666   0.5131
     0.5533   0.6045   0.6488   0.6681   0.7034   0.7200   0.8063   0.8428
     0.8656   0.9439   0.9574   1.0141   1.0516   1.1017   1.1247   1.1431
     1.1737   1.1936   1.2459   1.2825   1.2941   1.3218   1.3554   1.3978
     1.4095   1.4433   1.4666   1.4814   1.5057   1.5300   1.5539   1.5711
     1.5900   1.6293   1.6515   1.6743   1.6951   1.7058   1.7316   1.7395
     1.7536   1.8277   1.8509   1.8755   1.8997   1.9524   2.0173   2.0466
     2.1015   2.1566   2.2321   2.2992   2.4081   2.4895   2.7585   2.8905

          k = 0.1250-0.1250-0.3750 (132608 PWs)   bands (ev):

   -18.4862 -18.4619 -18.4604 -18.3484 -18.3442 -18.3419 -18.3409 -18.3361
   -18.3346 -18.3278 -18.3252 -18.3198 -18.3142 -18.3117 -18.2965 -18.2889
   -18.2833 -18.2776 -18.2746 -18.2732 -18.2708 -18.2676 -18.2664 -18.2583
   -18.2581 -18.2519 -18.2250 -18.2213 -18.2133 -18.2095 -18.2040 -18.2005
   -18.1904 -18.1891 -18.1884 -18.1814 -18.1741 -18.1672 -18.1121 -18.1112
   -18.1037 -18.0977 -18.0921 -18.0896 -18.0797 -18.0761 -18.0735 -18.0704
    -9.5883  -9.4304  -9.2552  -9.2282  -9.1803  -9.1000  -9.0891  -9.0510
    -9.0233  -8.9911  -8.9632  -8.9276  -8.8912  -8.8762  -8.8397  -8.7985
    -8.7640  -8.7467  -8.6904  -8.6525  -8.5849  -8.5632  -8.4804  -8.4722
    -5.2646  -5.2540  -5.2463  -5.2395  -5.2345  -5.2317  -5.2265  -5.2134
    -5.2081  -5.1221  -5.1182  -5.1059  -5.1029  -5.0722  -5.0659  -5.0596
    -5.0488  -5.0429  -4.9966  -4.9865  -4.9799  -4.9700  -4.9677  -4.9551
    -4.3028  -4.0661  -3.8246  -3.7309  -3.5647  -3.4997  -3.2514  -2.9785
    -0.8044  -0.6853  -0.5848  -0.5797  -0.5471  -0.4420  -0.3841  -0.3026
    -0.1073  -0.0385   0.0171   0.1063   0.3242   0.4095   0.4575   0.5258
     0.5574   0.6031   0.6322   0.6872   0.7111   0.7438   0.7761   0.8180
     0.8815   0.9250   0.9608   1.0241   1.0605   1.0881   1.1304   1.1552
     1.1642   1.1943   1.2433   1.2697   1.3132   1.3502   1.3615   1.3738
     1.4054   1.4494   1.4660   1.4827   1.5051   1.5204   1.5513   1.5718
     1.5953   1.6055   1.6466   1.6665   1.6881   1.7177   1.7436   1.7629
     1.7756   1.8016   1.8385   1.8705   1.9127   1.9619   2.0200   2.0401
     2.0785   2.1595   2.2332   2.3199   2.4153   2.4796   2.7302   2.9130

          k = 0.3750-0.1250 0.1250 (132608 PWs)   bands (ev):

   -18.4862 -18.4619 -18.4604 -18.3484 -18.3442 -18.3419 -18.3409 -18.3361
   -18.3346 -18.3278 -18.3252 -18.3198 -18.3142 -18.3117 -18.2965 -18.2889
   -18.2834 -18.2776 -18.2745 -18.2732 -18.2708 -18.2676 -18.2664 -18.2583
   -18.2581 -18.2519 -18.2250 -18.2213 -18.2133 -18.2095 -18.2039 -18.2005
   -18.1904 -18.1891 -18.1884 -18.1814 -18.1741 -18.1672 -18.1120 -18.1112
   -18.1037 -18.0977 -18.0921 -18.0896 -18.0797 -18.0761 -18.0735 -18.0704
    -9.5846  -9.4339  -9.2724  -9.1995  -9.1831  -9.1354  -9.0905  -9.0421
    -9.0093  -8.9878  -8.9523  -8.9258  -8.8993  -8.8755  -8.8362  -8.7927
    -8.7658  -8.7415  -8.7000  -8.6621  -8.5922  -8.5592  -8.4812  -8.4653
    -5.2650  -5.2538  -5.2472  -5.2407  -5.2346  -5.2306  -5.2249  -5.2131
    -5.2082  -5.1222  -5.1184  -5.1057  -5.1030  -5.0719  -5.0663  -5.0603
    -5.0495  -5.0425  -4.9965  -4.9861  -4.9799  -4.9698  -4.9676  -4.9550
    -4.2868  -4.0639  -3.8069  -3.7605  -3.5485  -3.5220  -3.2612  -3.0075
    -0.8206  -0.6003  -0.5783  -0.5261  -0.3988  -0.3679  -0.3316  -0.3045
    -0.2241  -0.0771  -0.0049   0.0751   0.3454   0.3860   0.4508   0.4970
     0.5414   0.5663   0.5744   0.6143   0.6684   0.7235   0.7959   0.8129
     0.8771   0.8993   0.9487   1.0202   1.0685   1.0990   1.1191   1.1614
     1.1988   1.2343   1.2673   1.2837   1.3038   1.3215   1.3648   1.4023
     1.4079   1.4193   1.4612   1.5009   1.5123   1.5329   1.5527   1.5713
     1.5895   1.6296   1.6448   1.6646   1.6820   1.6861   1.7247   1.7350
     1.7591   1.8068   1.8491   1.8762   1.9212   1.9543   1.9868   2.0342
     2.0629   2.1580   2.2652   2.3599   2.4250   2.5026   2.7509   2.8718

          k =-0.3750-0.1250-0.1250 (132608 PWs)   bands (ev):

   -18.4862 -18.4619 -18.4604 -18.3484 -18.3442 -18.3419 -18.3409 -18.3361
   -18.3346 -18.3278 -18.3252 -18.3198 -18.3142 -18.3117 -18.2965 -18.2889
   -18.2834 -18.2776 -18.2745 -18.2732 -18.2708 -18.2676 -18.2664 -18.2583
   -18.2581 -18.2519 -18.2250 -18.2213 -18.2133 -18.2095 -18.2039 -18.2005
   -18.1904 -18.1891 -18.1884 -18.1814 -18.1741 -18.1672 -18.1120 -18.1112
   -18.1037 -18.0977 -18.0921 -18.0896 -18.0797 -18.0761 -18.0735 -18.0704
    -9.5845  -9.4340  -9.2732  -9.2026  -9.1760  -9.1380  -9.0924  -9.0390
    -9.0069  -8.9921  -8.9548  -8.9257  -8.8923  -8.8801  -8.8379  -8.7883
    -8.7672  -8.7416  -8.7022  -8.6617  -8.5911  -8.5596  -8.4812  -8.4653
    -5.2649  -5.2538  -5.2470  -5.2405  -5.2342  -5.2316  -5.2252  -5.2128
    -5.2081  -5.1222  -5.1184  -5.1055  -5.1031  -5.0724  -5.0661  -5.0604
    -5.0493  -5.0425  -4.9965  -4.9861  -4.9798  -4.9697  -4.9675  -4.9551
    -4.2851  -4.0683  -3.8036  -3.7580  -3.5519  -3.5249  -3.2561  -3.0096
    -0.8148  -0.6092  -0.5753  -0.5393  -0.4026  -0.3625  -0.3420  -0.3051
    -0.1743  -0.0854  -0.0016   0.0592   0.3395   0.3894   0.4501   0.5048
     0.5241   0.5657   0.5707   0.6252   0.6560   0.7275   0.7872   0.8130
     0.8624   0.8982   0.9696   1.0274   1.0742   1.0968   1.1395   1.1555
     1.1910   1.2219   1.2730   1.2839   1.3171   1.3425   1.3540   1.3685
     1.4033   1.4327   1.4575   1.4877   1.5202   1.5355   1.5582   1.5852
     1.5864   1.6011   1.6402   1.6656   1.6802   1.7062   1.7257   1.7419
     1.7767   1.8043   1.8402   1.8832   1.9013   1.9601   1.9992   2.0300
     2.0669   2.1538   2.2789   2.3193   2.4146   2.5299   2.7664   2.8592

          k = 0.3750 0.1250-0.1250 (132608 PWs)   bands (ev):

   -18.4862 -18.4619 -18.4604 -18.3484 -18.3442 -18.3419 -18.3409 -18.3361
   -18.3346 -18.3278 -18.3252 -18.3198 -18.3142 -18.3117 -18.2965 -18.2889
   -18.2834 -18.2776 -18.2745 -18.2732 -18.2708 -18.2676 -18.2664 -18.2583
   -18.2581 -18.2519 -18.2250 -18.2213 -18.2133 -18.2095 -18.2039 -18.2005
   -18.1904 -18.1891 -18.1884 -18.1814 -18.1741 -18.1672 -18.1120 -18.1112
   -18.1037 -18.0977 -18.0921 -18.0896 -18.0797 -18.0761 -18.0735 -18.0704
    -9.5846  -9.4341  -9.2718  -9.2035  -9.1778  -9.1379  -9.0924  -9.0328
    -9.0082  -8.9971  -8.9535  -8.9237  -8.8963  -8.8781  -8.8383  -8.7875
    -8.7681  -8.7411  -8.7014  -8.6624  -8.5908  -8.5599  -8.4811  -8.4653
    -5.2649  -5.2538  -5.2472  -5.2406  -5.2346  -5.2307  -5.2249  -5.2132
    -5.2082  -5.1223  -5.1184  -5.1055  -5.1031  -5.0723  -5.0660  -5.0604
    -5.0493  -5.0426  -4.9965  -4.9861  -4.9799  -4.9697  -4.9676  -4.9550
    -4.2840  -4.0714  -3.8000  -3.7544  -3.5575  -3.5276  -3.2506  -3.0119
    -0.8142  -0.5981  -0.5808  -0.5182  -0.4300  -0.3649  -0.3397  -0.3059
    -0.1867  -0.0740  -0.0187   0.0640   0.3518   0.4026   0.4445   0.4950
     0.5150   0.5610   0.6061   0.6140   0.6652   0.7244   0.7784   0.8143
     0.8459   0.9289   0.9748   1.0415   1.0631   1.0879   1.1165   1.1696
     1.2040   1.2194   1.2463   1.2762   1.3114   1.3427   1.3530   1.3852
     1.4093   1.4312   1.4675   1.5010   1.5106   1.5286   1.5505   1.5668
     1.6025   1.6148   1.6481   1.6599   1.6860   1.6961   1.7215   1.7435
     1.7687   1.8032   1.8317   1.8671   1.9165   1.9566   1.9864   2.0398
     2.0714   2.1638   2.2728   2.3470   2.4374   2.4883   2.7444   2.8808

          k =-0.3750 0.1250 0.1250 (132608 PWs)   bands (ev):

   -18.4862 -18.4619 -18.4604 -18.3484 -18.3442 -18.3419 -18.3409 -18.3361
   -18.3346 -18.3278 -18.3252 -18.3198 -18.3142 -18.3117 -18.2965 -18.2889
   -18.2834 -18.2776 -18.2745 -18.2732 -18.2708 -18.2676 -18.2664 -18.2583
   -18.2581 -18.2519 -18.2250 -18.2213 -18.2133 -18.2095 -18.2039 -18.2005
   -18.1904 -18.1891 -18.1884 -18.1814 -18.1741 -18.1672 -18.1120 -18.1112
   -18.1037 -18.0977 -18.0921 -18.0896 -18.0797 -18.0761 -18.0735 -18.0704
    -9.5846  -9.4341  -9.2707  -9.2044  -9.1801  -9.1338  -9.0923  -9.0406
    -9.0120  -8.9859  -8.9550  -8.9217  -8.8971  -8.8793  -8.8360  -8.7900
    -8.7702  -8.7406  -8.6999  -8.6612  -8.5926  -8.5592  -8.4810  -8.4653
    -5.2649  -5.2538  -5.2469  -5.2405  -5.2341  -5.2317  -5.2252  -5.2128
    -5.2081  -5.1223  -5.1183  -5.1059  -5.1030  -5.0719  -5.0662  -5.0602
    -5.0495  -5.0426  -4.9965  -4.9861  -4.9798  -4.9698  -4.9675  -4.9550
    -4.2860  -4.0675  -3.8028  -3.7561  -3.5533  -3.5268  -3.2557  -3.0092
    -0.8165  -0.6145  -0.5657  -0.5342  -0.3964  -0.3727  -0.3303  -0.2927
    -0.2254  -0.0669  -0.0247   0.0775   0.3530   0.3856   0.4409   0.4876
     0.5383   0.5642   0.5939   0.6251   0.6800   0.7255   0.7763   0.8230
     0.8668   0.8902   0.9710   1.0003   1.0536   1.0814   1.1368   1.1640
     1.1891   1.2428   1.2651   1.2877   1.3166   1.3404   1.3533   1.3906
     1.4152   1.4376   1.4632   1.4900   1.5051   1.5265   1.5476   1.5684
     1.5931   1.6130   1.6421   1.6762   1.6870   1.7145   1.7236   1.7446
     1.7541   1.8014   1.8392   1.8801   1.9312   1.9439   1.9816   2.0402
     2.0671   2.1396   2.2828   2.3476   2.4122   2.5077   2.7242   2.9085

          k =-0.1250 0.3750 0.1250 (132608 PWs)   bands (ev):

   -18.4862 -18.4619 -18.4604 -18.3484 -18.3442 -18.3419 -18.3409 -18.3361
   -18.3346 -18.3278 -18.3252 -18.3198 -18.3142 -18.3117 -18.2965 -18.2889
   -18.2834 -18.2776 -18.2745 -18.2732 -18.2708 -18.2676 -18.2664 -18.2583
   -18.2581 -18.2519 -18.2250 -18.2213 -18.2133 -18.2095 -18.2040 -18.2005
   -18.1904 -18.1891 -18.1884 -18.1814 -18.1741 -18.1672 -18.1121 -18.1112
   -18.1037 -18.0977 -18.0921 -18.0896 -18.0797 -18.0761 -18.0735 -18.0704
    -9.5800  -9.4490  -9.2480  -9.2144  -9.1907  -9.1084  -9.0800  -9.0542
    -9.0321  -8.9763  -8.9595  -8.9358  -8.9058  -8.8661  -8.8237  -8.7910
    -8.7667  -8.7481  -8.6999  -8.6598  -8.5887  -8.5608  -8.4790  -8.4697
    -5.2651  -5.2534  -5.2467  -5.2396  -5.2353  -5.2309  -5.2254  -5.2135
    -5.2084  -5.1221  -5.1179  -5.1065  -5.1025  -5.0716  -5.0663  -5.0602
    -5.0495  -5.0432  -4.9967  -4.9853  -4.9797  -4.9713  -4.9678  -4.9544
    -4.3004  -4.0728  -3.8321  -3.7265  -3.5807  -3.4997  -3.2287  -2.9662
    -0.7313  -0.6779  -0.6096  -0.5809  -0.5262  -0.4544  -0.4030  -0.3202
    -0.1536  -0.0237   0.0551   0.0878   0.2821   0.4003   0.4646   0.5013
     0.5365   0.5886   0.6116   0.6665   0.7007   0.7215   0.7474   0.8129
     0.8528   0.9122   0.9505   1.0149   1.0561   1.0927   1.1553   1.1797
     1.2034   1.2122   1.2700   1.2883   1.2994   1.3373   1.3692   1.3842
     1.4013   1.4217   1.4532   1.4736   1.5142   1.5386   1.5615   1.5881
     1.6084   1.6408   1.6640   1.6774   1.6952   1.7132   1.7232   1.7388
     1.7616   1.8091   1.8327   1.8784   1.9246   1.9762   2.0213   2.0698
     2.1248   2.1915   2.2312   2.3029   2.4369   2.5099   2.7407   2.9523

          k =-0.1250-0.3750-0.1250 (132608 PWs)   bands (ev):

   -18.4862 -18.4619 -18.4604 -18.3484 -18.3442 -18.3419 -18.3409 -18.3361
   -18.3346 -18.3278 -18.3252 -18.3198 -18.3142 -18.3117 -18.2965 -18.2889
   -18.2834 -18.2776 -18.2745 -18.2732 -18.2708 -18.2676 -18.2664 -18.2583
   -18.2581 -18.2519 -18.2250 -18.2213 -18.2133 -18.2095 -18.2039 -18.2005
   -18.1904 -18.1891 -18.1884 -18.1814 -18.1741 -18.1672 -18.1121 -18.1112
   -18.1037 -18.0977 -18.0921 -18.0896 -18.0797 -18.0761 -18.0735 -18.0704
    -9.5799  -9.4490  -9.2503  -9.2129  -9.1891  -9.1094  -9.0816  -9.0568
    -9.0241  -8.9795  -8.9606  -8.9362  -8.9039  -8.8671  -8.8261  -8.7894
    -8.7610  -8.7519  -8.7012  -8.6608  -8.5869  -8.5614  -8.4791  -8.4697
    -5.2651  -5.2534  -5.2468  -5.2396  -5.2353  -5.2308  -5.2254  -5.2134
    -5.2085  -5.1220  -5.1180  -5.1062  -5.1025  -5.0720  -5.0661  -5.0604
    -5.0494  -5.0431  -4.9966  -4.9852  -4.9797  -4.9713  -4.9678  -4.9545
    -4.2992  -4.0769  -3.8200  -3.7385  -3.5716  -3.5094  -3.2242  -2.9674
    -0.7156  -0.7114  -0.6114  -0.5775  -0.5085  -0.4546  -0.3995  -0.3154
    -0.1542  -0.0308   0.0538   0.0955   0.2686   0.4116   0.4739   0.4990
     0.5367   0.5683   0.6028   0.6682   0.6847   0.7215   0.7643   0.8133
     0.8544   0.9163   0.9562   1.0217   1.0601   1.0868   1.1533   1.1610
     1.2010   1.2381   1.2577   1.2852   1.3057   1.3328   1.3593   1.3759
     1.4066   1.4298   1.4604   1.5016   1.5230   1.5348   1.5504   1.5844
     1.6071   1.6335   1.6515   1.6753   1.6962   1.7105   1.7253   1.7545
     1.7753   1.7964   1.8338   1.8681   1.9302   1.9778   2.0207   2.0705
     2.1244   2.1945   2.2314   2.2841   2.4353   2.5110   2.7668   2.9418

          k = 0.1250 0.3750-0.1250 (132608 PWs)   bands (ev):

   -18.4862 -18.4619 -18.4604 -18.3484 -18.3442 -18.3419 -18.3409 -18.3361
   -18.3346 -18.3278 -18.3252 -18.3198 -18.3142 -18.3117 -18.2965 -18.2889
   -18.2834 -18.2776 -18.2745 -18.2732 -18.2708 -18.2676 -18.2664 -18.2583
   -18.2581 -18.2519 -18.2250 -18.2213 -18.2133 -18.2095 -18.2039 -18.2005
   -18.1904 -18.1891 -18.1884 -18.1814 -18.1741 -18.1672 -18.1121 -18.1112
   -18.1037 -18.0977 -18.0921 -18.0896 -18.0797 -18.0761 -18.0735 -18.0704
    -9.5799  -9.4490  -9.2503  -9.2081  -9.1950  -9.1104  -9.0814  -9.0465
    -9.0307  -8.9849  -8.9561  -8.9346  -8.9104  -8.8642  -8.8244  -8.7906
    -8.7583  -8.7526  -8.7024  -8.6610  -8.5865  -8.5618  -8.4790  -8.4697
    -5.2651  -5.2534  -5.2471  -5.2398  -5.2354  -5.2300  -5.2251  -5.2139
    -5.2085  -5.1220  -5.1180  -5.1062  -5.1025  -5.0720  -5.0661  -5.0604
    -5.0493  -5.0432  -4.9966  -4.9853  -4.9798  -4.9713  -4.9679  -4.9544
    -4.2986  -4.0768  -3.8285  -3.7255  -3.5843  -3.5009  -3.2243  -2.9686
    -0.7147  -0.6800  -0.6188  -0.5904  -0.5273  -0.4445  -0.4092  -0.3257
    -0.1251  -0.0287   0.0257   0.0884   0.2904   0.4316   0.4560   0.4724
     0.5528   0.5698   0.6082   0.6798   0.6954   0.7071   0.7705   0.8203
     0.8290   0.9291   0.9534   1.0287   1.0705   1.1016   1.1458   1.1599
     1.2005   1.2101   1.2566   1.2888   1.3096   1.3341   1.3648   1.3798
     1.4056   1.4237   1.4487   1.4797   1.5137   1.5454   1.5539   1.5924
     1.6189   1.6277   1.6542   1.6719   1.6974   1.7059   1.7227   1.7644
     1.7699   1.8019   1.8299   1.8595   1.9211   1.9791   2.0367   2.0706
     2.1367   2.1769   2.2368   2.3084   2.4311   2.4937   2.7708   2.9344

          k = 0.1250-0.3750 0.1250 (132608 PWs)   bands (ev):

   -18.4862 -18.4619 -18.4604 -18.3484 -18.3442 -18.3419 -18.3409 -18.3361
   -18.3346 -18.3278 -18.3252 -18.3198 -18.3142 -18.3117 -18.2965 -18.2889
   -18.2834 -18.2776 -18.2745 -18.2732 -18.2708 -18.2676 -18.2664 -18.2583
   -18.2581 -18.2519 -18.2250 -18.2213 -18.2133 -18.2095 -18.2039 -18.2005
   -18.1904 -18.1891 -18.1884 -18.1814 -18.1741 -18.1672 -18.1121 -18.1112
   -18.1037 -18.0977 -18.0921 -18.0896 -18.0797 -18.0761 -18.0735 -18.0704
    -9.5800  -9.4489  -9.2491  -9.2098  -9.1945  -9.1097  -9.0793  -9.0607
    -9.0207  -8.9746  -8.9659  -8.9325  -8.9106  -8.8638  -8.8242  -8.7950
    -8.7572  -8.7519  -8.7005  -8.6616  -8.5876  -8.5610  -8.4791  -8.4696
    -5.2651  -5.2534  -5.2470  -5.2399  -5.2355  -5.2299  -5.2251  -5.2139
    -5.2085  -5.1219  -5.1180  -5.1063  -5.1024  -5.0716  -5.0664  -5.0604
    -5.0495  -5.0431  -4.9966  -4.9853  -4.9797  -4.9713  -4.9678  -4.9544
    -4.3007  -4.0733  -3.8245  -3.7365  -3.5729  -3.5059  -3.2274  -2.9659
    -0.7297  -0.6822  -0.6311  -0.5663  -0.5221  -0.4328  -0.4220  -0.3168
    -0.1256  -0.0232   0.0241   0.0743   0.3041   0.4028   0.4517   0.4744
     0.5571   0.5907   0.6207   0.6516   0.6948   0.7330   0.7543   0.8241
     0.8588   0.9182   0.9524   1.0102   1.0337   1.1011   1.1429   1.1629
     1.1963   1.2334   1.2596   1.2878   1.3066   1.3267   1.3689   1.3851
     1.4114   1.4330   1.4727   1.4962   1.5095   1.5324   1.5499   1.5649
     1.6322   1.6448   1.6577   1.6764   1.6886   1.7059   1.7322   1.7382
     1.7690   1.8031   1.8280   1.8718   1.9256   1.9701   2.0324   2.0636
     2.1142   2.1981   2.2449   2.2957   2.4351   2.4907   2.7634   2.9526

          k =-0.1250-0.3750 0.3750 (132616 PWs)   bands (ev):

   -18.4862 -18.4619 -18.4604 -18.3484 -18.3442 -18.3419 -18.3409 -18.3361
   -18.3346 -18.3278 -18.3252 -18.3198 -18.3142 -18.3117 -18.2965 -18.2889
   -18.2833 -18.2776 -18.2746 -18.2732 -18.2708 -18.2676 -18.2664 -18.2583
   -18.2581 -18.2519 -18.2250 -18.2213 -18.2133 -18.2095 -18.2040 -18.2005
   -18.1904 -18.1891 -18.1884 -18.1814 -18.1741 -18.1672 -18.1121 -18.1112
   -18.1037 -18.0977 -18.0921 -18.0896 -18.0797 -18.0761 -18.0735 -18.0704
    -9.5785  -9.4455  -9.2435  -9.2182  -9.1976  -9.0982  -9.0897  -9.0644
    -9.0265  -8.9963  -8.9552  -8.9230  -8.9096  -8.8679  -8.8244  -8.7896
    -8.7551  -8.7492  -8.6941  -8.6570  -8.5813  -8.5663  -8.4810  -8.4761
    -5.2647  -5.2535  -5.2466  -5.2393  -5.2370  -5.2285  -5.2267  -5.2137
    -5.2082  -5.1221  -5.1181  -5.1063  -5.1025  -5.0718  -5.0658  -5.0602
    -5.0491  -5.0433  -4.9966  -4.9858  -4.9798  -4.9715  -4.9680  -4.9545
    -4.1904  -3.9751  -3.9521  -3.7160  -3.6252  -3.4068  -3.3888  -3.1487
    -0.7080  -0.6775  -0.5687  -0.4619  -0.3936  -0.3073  -0.1812  -0.1200
    -0.0590   0.0612   0.0875   0.1735   0.2694   0.4078   0.4328   0.4770
     0.5140   0.5338   0.5980   0.6313   0.6376   0.6824   0.7351   0.7638
     0.7992   0.9012   0.9162   0.9607   0.9764   1.0110   1.0260   1.0901
     1.1240   1.1656   1.1978   1.2526   1.2771   1.3176   1.3511   1.3887
     1.4258   1.4321   1.4663   1.4867   1.5119   1.5699   1.5743   1.5914
     1.6199   1.6462   1.6642   1.6954   1.7124   1.7334   1.7620   1.7735
     1.7780   1.8282   1.8505   1.8672   1.8963   1.9511   1.9868   2.0302
     2.0595   2.0871   2.1483   2.2780   2.3124   2.4258   2.4994   2.6667

          k =-0.1250 0.3750-0.3750 (132616 PWs)   bands (ev):

   -18.4862 -18.4619 -18.4604 -18.3484 -18.3442 -18.3419 -18.3409 -18.3361
   -18.3346 -18.3278 -18.3252 -18.3198 -18.3142 -18.3117 -18.2965 -18.2889
   -18.2833 -18.2776 -18.2746 -18.2732 -18.2708 -18.2676 -18.2664 -18.2583
   -18.2581 -18.2519 -18.2250 -18.2213 -18.2133 -18.2095 -18.2039 -18.2005
   -18.1904 -18.1891 -18.1884 -18.1814 -18.1741 -18.1672 -18.1121 -18.1112
   -18.1037 -18.0977 -18.0921 -18.0896 -18.0797 -18.0761 -18.0735 -18.0704
    -9.5786  -9.4453  -9.2460  -9.2115  -9.2006  -9.0979  -9.0888  -9.0751
    -9.0213  -8.9845  -8.9654  -8.9222  -8.9069  -8.8680  -8.8255  -8.7930
    -8.7544  -8.7474  -8.6936  -8.6571  -8.5820  -8.5657  -8.4813  -8.4758
    -5.2647  -5.2535  -5.2466  -5.2393  -5.2369  -5.2285  -5.2267  -5.2136
    -5.2083  -5.1220  -5.1181  -5.1064  -5.1025  -5.0715  -5.0660  -5.0601
    -5.0493  -5.0432  -4.9965  -4.9858  -4.9797  -4.9715  -4.9679  -4.9545
    -4.1943  -3.9683  -3.9517  -3.7152  -3.6304  -3.4070  -3.3900  -3.1461
    -0.7182  -0.6777  -0.5675  -0.4458  -0.4098  -0.3017  -0.1668  -0.1157
    -0.0589   0.0544   0.0924   0.1604   0.2757   0.3872   0.4306   0.4810
     0.5138   0.5360   0.5909   0.6312   0.6476   0.6949   0.7434   0.7649
     0.8065   0.8945   0.9132   0.9269   0.9751   1.0064   1.0467   1.0875
     1.1189   1.1727   1.2039   1.2508   1.2952   1.3089   1.3380   1.3917
     1.4168   1.4461   1.4811   1.4960   1.5105   1.5326   1.5756   1.5988
     1.6325   1.6383   1.6591   1.7064   1.7268   1.7382   1.7479   1.7656
     1.7800   1.8303   1.8530   1.8739   1.8964   1.9348   1.9857   2.0274
     2.0516   2.0848   2.1704   2.2592   2.3198   2.4123   2.5138   2.6711

          k = 0.1250-0.3750-0.3750 (132616 PWs)   bands (ev):

   -18.4862 -18.4619 -18.4604 -18.3484 -18.3442 -18.3419 -18.3409 -18.3361
   -18.3346 -18.3278 -18.3252 -18.3198 -18.3142 -18.3117 -18.2965 -18.2889
   -18.2833 -18.2776 -18.2746 -18.2732 -18.2708 -18.2676 -18.2664 -18.2583
   -18.2581 -18.2519 -18.2250 -18.2213 -18.2133 -18.2095 -18.2039 -18.2005
   -18.1904 -18.1891 -18.1884 -18.1814 -18.1741 -18.1672 -18.1121 -18.1112
   -18.1037 -18.0977 -18.0921 -18.0896 -18.0797 -18.0761 -18.0735 -18.0704
    -9.5785  -9.4454  -9.2442  -9.2184  -9.1953  -9.0969  -9.0892  -9.0704
    -9.0314  -8.9841  -8.9611  -8.9250  -8.9012  -8.8713  -8.8251  -8.7901
    -8.7614  -8.7445  -8.6934  -8.6551  -8.5836  -8.5652  -8.4810  -8.4760
    -5.2647  -5.2535  -5.2463  -5.2386  -5.2373  -5.2293  -5.2269  -5.2132
    -5.2081  -5.1221  -5.1180  -5.1065  -5.1025  -5.0715  -5.0659  -5.0600
    -5.0494  -5.0433  -4.9966  -4.9857  -4.9797  -4.9715  -4.9679  -4.9545
    -4.1934  -3.9693  -3.9532  -3.7146  -3.6288  -3.4031  -3.3936  -3.1472
    -0.7164  -0.6773  -0.5613  -0.4523  -0.3996  -0.3045  -0.1853  -0.1277
    -0.0607   0.0108   0.1415   0.2182   0.2481   0.3919   0.4483   0.4903
     0.5097   0.5286   0.5727   0.6210   0.6612   0.6689   0.7035   0.7779
     0.8349   0.8930   0.9026   0.9404   0.9576   1.0277   1.0685   1.0835
     1.1096   1.1698   1.2175   1.2309   1.2831   1.3333   1.3572   1.3822
     1.4269   1.4446   1.4584   1.4845   1.5077   1.5480   1.5582   1.5887
     1.6153   1.6380   1.6701   1.6925   1.7331   1.7444   1.7570   1.7784
     1.8009   1.8288   1.8483   1.8610   1.8855   1.9385   1.9853   2.0276
     2.0606   2.1078   2.1348   2.2950   2.3252   2.4264   2.4773   2.6655

          k = 0.3750 0.1250-0.3750 (132616 PWs)   bands (ev):

   -18.4862 -18.4619 -18.4604 -18.3484 -18.3442 -18.3419 -18.3409 -18.3361
   -18.3346 -18.3278 -18.3252 -18.3198 -18.3142 -18.3117 -18.2965 -18.2889
   -18.2833 -18.2776 -18.2746 -18.2732 -18.2708 -18.2676 -18.2664 -18.2583
   -18.2581 -18.2519 -18.2250 -18.2213 -18.2133 -18.2095 -18.2039 -18.2005
   -18.1904 -18.1891 -18.1884 -18.1814 -18.1741 -18.1672 -18.1120 -18.1112
   -18.1037 -18.0977 -18.0921 -18.0896 -18.0797 -18.0761 -18.0735 -18.0704
    -9.5832  -9.4314  -9.2590  -9.2149  -9.1819  -9.1448  -9.0874  -9.0384
    -9.0226  -9.0017  -8.9487  -8.9166  -8.8951  -8.8773  -8.8361  -8.7870
    -8.7614  -8.7416  -8.6978  -8.6576  -8.5854  -8.5627  -8.4828  -8.4723
    -5.2646  -5.2540  -5.2463  -5.2397  -5.2351  -5.2303  -5.2264  -5.2139
    -5.2082  -5.1221  -5.1184  -5.1054  -5.1030  -5.0720  -5.0659  -5.0599
    -5.0493  -5.0429  -4.9964  -4.9865  -4.9799  -4.9697  -4.9679  -4.9552
    -4.1815  -3.9990  -3.8598  -3.7416  -3.6286  -3.4871  -3.3655  -3.1853
    -0.7890  -0.5335  -0.4944  -0.4409  -0.3143  -0.2798  -0.1852  -0.1033
    -0.0435   0.0070   0.0628   0.1511   0.3254   0.3583   0.4264   0.4424
     0.5217   0.5367   0.6009   0.6045   0.6412   0.6759   0.7081   0.7684
     0.7915   0.8908   0.9177   0.9724   1.0062   1.0341   1.0613   1.1026
     1.1583   1.1677   1.1816   1.2361   1.2567   1.2976   1.3377   1.3626
     1.3859   1.4020   1.4665   1.4767   1.5276   1.5380   1.5807   1.6150
     1.6236   1.6398   1.6531   1.6792   1.6874   1.7127   1.7409   1.7717
     1.8057   1.8251   1.8388   1.8661   1.8992   1.9302   1.9535   2.0163
     2.0388   2.1068   2.1475   2.2109   2.2998   2.3940   2.5293   2.6878

          k =-0.3750-0.1250-0.3750 (132616 PWs)   bands (ev):

   -18.4862 -18.4619 -18.4604 -18.3484 -18.3442 -18.3419 -18.3409 -18.3361
   -18.3346 -18.3278 -18.3252 -18.3198 -18.3142 -18.3117 -18.2965 -18.2889
   -18.2833 -18.2776 -18.2746 -18.2732 -18.2708 -18.2676 -18.2664 -18.2583
   -18.2581 -18.2519 -18.2250 -18.2213 -18.2133 -18.2095 -18.2039 -18.2005
   -18.1904 -18.1891 -18.1884 -18.1814 -18.1741 -18.1672 -18.1120 -18.1112
   -18.1037 -18.0977 -18.0921 -18.0896 -18.0797 -18.0761 -18.0735 -18.0704
    -9.5832  -9.4313  -9.2616  -9.2116  -9.1818  -9.1444  -9.0871  -9.0464
    -9.0189  -8.9978  -8.9499  -8.9180  -8.8921  -8.8793  -8.8353  -8.7871
    -8.7611  -8.7420  -8.6986  -8.6571  -8.5854  -8.5625  -8.4829  -8.4723
    -5.2646  -5.2540  -5.2461  -5.2395  -5.2345  -5.2315  -5.2266  -5.2135
    -5.2082  -5.1220  -5.1184  -5.1054  -5.1030  -5.0721  -5.0659  -5.0599
    -5.0494  -5.0428  -4.9964  -4.9864  -4.9798  -4.9697  -4.9679  -4.9553
    -4.1850  -3.9739  -3.8982  -3.7121  -3.6525  -3.4370  -3.4110  -3.1787
    -0.7894  -0.5388  -0.5124  -0.4300  -0.3041  -0.2703  -0.1797  -0.1419
    -0.0478   0.0515   0.1163   0.1373   0.2888   0.3385   0.4143   0.4516
     0.4937   0.5488   0.5798   0.6303   0.6371   0.6820   0.7301   0.7546
     0.7976   0.8619   0.8912   0.9920   1.0203   1.0479   1.0808   1.0969
     1.1579   1.1680   1.1894   1.2433   1.2608   1.2879   1.3162   1.3624
     1.3774   1.4243   1.4667   1.4979   1.5141   1.5385   1.5634   1.5978
     1.6224   1.6321   1.6643   1.6718   1.7059   1.7139   1.7349   1.7704
     1.8029   1.8172   1.8669   1.8858   1.9048   1.9294   1.9642   1.9972
     2.0406   2.0663   2.1580   2.2131   2.2919   2.4040   2.5487   2.6724

          k = 0.3750-0.1250 0.3750 (132616 PWs)   bands (ev):

   -18.4862 -18.4619 -18.4604 -18.3484 -18.3442 -18.3419 -18.3409 -18.3361
   -18.3346 -18.3278 -18.3252 -18.3198 -18.3142 -18.3117 -18.2965 -18.2889
   -18.2833 -18.2776 -18.2746 -18.2732 -18.2708 -18.2676 -18.2664 -18.2583
   -18.2581 -18.2519 -18.2250 -18.2213 -18.2133 -18.2095 -18.2039 -18.2005
   -18.1904 -18.1891 -18.1884 -18.1814 -18.1741 -18.1672 -18.1120 -18.1112
   -18.1037 -18.0977 -18.0921 -18.0896 -18.0797 -18.0761 -18.0735 -18.0704
    -9.5832  -9.4311  -9.2623  -9.2061  -9.1870  -9.1453  -9.0855  -9.0487
    -9.0203  -8.9941  -8.9480  -8.9205  -8.8953  -8.8752  -8.8340  -8.7925
    -8.7601  -8.7398  -8.6981  -8.6570  -8.5862  -8.5624  -8.4830  -8.4721
    -5.2646  -5.2540  -5.2463  -5.2397  -5.2350  -5.2303  -5.2264  -5.2139
    -5.2083  -5.1220  -5.1184  -5.1055  -5.1029  -5.0716  -5.0661  -5.0599
    -5.0495  -5.0429  -4.9964  -4.9865  -4.9798  -4.9697  -4.9679  -4.9552
    -4.1873  -3.9713  -3.8954  -3.7083  -3.6609  -3.4337  -3.4135  -3.1779
    -0.7960  -0.5250  -0.4942  -0.4336  -0.3192  -0.2868  -0.1650  -0.1461
    -0.0561   0.0422   0.1014   0.1417   0.2900   0.3668   0.4169   0.4594
     0.5089   0.5338   0.5975   0.6065   0.6452   0.6807   0.7026   0.7747
     0.8062   0.8732   0.9016   0.9865   1.0117   1.0329   1.0739   1.0941
     1.1167   1.1841   1.2084   1.2284   1.2717   1.2996   1.3393   1.3529
     1.3881   1.4068   1.4606   1.4896   1.5178   1.5400   1.5668   1.5942
     1.6225   1.6480   1.6647   1.6812   1.6906   1.7176   1.7392   1.7513
     1.7863   1.8197   1.8679   1.8843   1.9100   1.9160   1.9534   1.9990
     2.0455   2.1040   2.1500   2.2355   2.2954   2.3731   2.5591   2.6663

          k =-0.3750 0.1250 0.3750 (132616 PWs)   bands (ev):

   -18.4862 -18.4619 -18.4604 -18.3484 -18.3442 -18.3419 -18.3409 -18.3361
   -18.3346 -18.3278 -18.3252 -18.3198 -18.3142 -18.3117 -18.2965 -18.2889
   -18.2833 -18.2776 -18.2746 -18.2732 -18.2708 -18.2676 -18.2664 -18.2583
   -18.2581 -18.2519 -18.2250 -18.2213 -18.2133 -18.2095 -18.2039 -18.2005
   -18.1904 -18.1891 -18.1884 -18.1814 -18.1741 -18.1672 -18.1120 -18.1112
   -18.1037 -18.0977 -18.0921 -18.0896 -18.0797 -18.0761 -18.0735 -18.0704
    -9.5832  -9.4313  -9.2593  -9.2133  -9.1830  -9.1440  -9.0875  -9.0465
    -9.0230  -8.9925  -8.9497  -8.9176  -8.8910  -8.8805  -8.8339  -8.7910
    -8.7631  -8.7389  -8.6981  -8.6561  -8.5869  -8.5621  -8.4828  -8.4722
    -5.2646  -5.2540  -5.2461  -5.2395  -5.2344  -5.2317  -5.2265  -5.2135
    -5.2082  -5.1221  -5.1183  -5.1057  -5.1029  -5.0716  -5.0660  -5.0597
    -5.0495  -5.0429  -4.9965  -4.9864  -4.9798  -4.9697  -4.9679  -4.9552
    -4.1845  -3.9962  -3.8573  -3.7363  -3.6385  -3.4852  -3.3666  -3.1837
    -0.7921  -0.5327  -0.5037  -0.4173  -0.3340  -0.2704  -0.1995  -0.0883
    -0.0514   0.0233   0.0459   0.1732   0.3182   0.3402   0.4294   0.4487
     0.5032   0.5388   0.5849   0.6438   0.6571   0.6856   0.7120   0.7591
     0.7744   0.8672   0.9272   0.9541   1.0126   1.0335   1.0731   1.0923
     1.1263   1.1743   1.2173   1.2316   1.2766   1.2985   1.3261   1.3735
     1.3894   1.4176   1.4546   1.4883   1.5217   1.5395   1.5453   1.5858
     1.6182   1.6345   1.6630   1.6827   1.7043   1.7251   1.7589   1.7678
     1.7987   1.8298   1.8432   1.8738   1.9000   1.9249   1.9505   2.0201
     2.0447   2.0771   2.1797   2.1943   2.2777   2.4203   2.5085   2.7010

          k = 0.3750-0.3750 0.1250 (132616 PWs)   bands (ev):

   -18.4862 -18.4619 -18.4604 -18.3484 -18.3442 -18.3419 -18.3409 -18.3361
   -18.3346 -18.3278 -18.3252 -18.3198 -18.3142 -18.3117 -18.2965 -18.2889
   -18.2834 -18.2776 -18.2745 -18.2732 -18.2708 -18.2676 -18.2664 -18.2583
   -18.2581 -18.2519 -18.2250 -18.2213 -18.2133 -18.2095 -18.2039 -18.2005
   -18.1904 -18.1891 -18.1884 -18.1814 -18.1741 -18.1672 -18.1120 -18.1112
   -18.1037 -18.0977 -18.0921 -18.0896 -18.0797 -18.0761 -18.0735 -18.0704
    -9.5756  -9.4452  -9.2664  -9.2042  -9.1823  -9.1272  -9.1018  -9.0579
    -9.0173  -8.9708  -8.9543  -8.9274  -8.9084  -8.8713  -8.8132  -8.7865
    -8.7628  -8.7466  -8.7037  -8.6617  -8.5916  -8.5597  -8.4821  -8.4697
    -5.2651  -5.2534  -5.2469  -5.2398  -5.2355  -5.2299  -5.2253  -5.2139
    -5.2085  -5.1219  -5.1180  -5.1066  -5.1024  -5.0720  -5.0663  -5.0606
    -5.0494  -5.0423  -4.9967  -4.9852  -4.9799  -4.9712  -4.9678  -4.9544
    -4.1788  -3.9808  -3.9119  -3.7363  -3.6325  -3.4471  -3.3899  -3.1615
    -0.6292  -0.5797  -0.5256  -0.4729  -0.3761  -0.2774  -0.1603  -0.1324
    -0.0563   0.0240   0.0759   0.1553   0.2512   0.3481   0.4318   0.4674
     0.5165   0.5372   0.5781   0.5970   0.6279   0.6479   0.7224   0.7644
     0.8152   0.8474   0.8932   0.9242   0.9600   1.0490   1.0779   1.0939
     1.1460   1.1846   1.2040   1.2429   1.2815   1.2973   1.3276   1.3592
     1.3856   1.4382   1.4601   1.4827   1.5201   1.5437   1.5905   1.6138
     1.6354   1.6595   1.6728   1.6807   1.7065   1.7322   1.7453   1.7589
     1.7813   1.8303   1.8525   1.8890   1.9061   1.9391   1.9685   2.0130
     2.0484   2.0728   2.1478   2.2720   2.3118   2.4420   2.5626   2.6982

          k =-0.3750-0.3750-0.1250 (132616 PWs)   bands (ev):

   -18.4862 -18.4619 -18.4604 -18.3484 -18.3442 -18.3419 -18.3409 -18.3361
   -18.3346 -18.3278 -18.3252 -18.3198 -18.3142 -18.3117 -18.2965 -18.2889
   -18.2834 -18.2776 -18.2745 -18.2732 -18.2708 -18.2676 -18.2664 -18.2583
   -18.2581 -18.2519 -18.2250 -18.2213 -18.2133 -18.2095 -18.2039 -18.2005
   -18.1904 -18.1891 -18.1884 -18.1814 -18.1741 -18.1672 -18.1120 -18.1112
   -18.1037 -18.0977 -18.0921 -18.0896 -18.0797 -18.0761 -18.0735 -18.0704
    -9.5755  -9.4454  -9.2674  -9.2071  -9.1739  -9.1335  -9.1015  -9.0551
    -9.0158  -8.9767  -8.9528  -8.9276  -8.9051  -8.8736  -8.8139  -8.7831
    -8.7615  -8.7486  -8.7062  -8.6612  -8.5905  -8.5601  -8.4821  -8.4697
    -5.2651  -5.2534  -5.2467  -5.2395  -5.2353  -5.2308  -5.2256  -5.2135
    -5.2084  -5.1219  -5.1180  -5.1065  -5.1025  -5.0724  -5.0661  -5.0606
    -5.0493  -5.0423  -4.9967  -4.9851  -4.9799  -4.9712  -4.9678  -4.9545
    -4.1733  -4.0061  -3.8895  -3.7291  -3.6410  -3.4701  -3.3631  -3.1665
    -0.6393  -0.5743  -0.5030  -0.4840  -0.3916  -0.2764  -0.1915  -0.0719
    -0.0495   0.0261   0.0636   0.1510   0.2401   0.3501   0.4340   0.4820
     0.4954   0.5172   0.5678   0.6039   0.6324   0.6746   0.7153   0.7322
     0.8150   0.8636   0.8733   0.9415   0.9845   1.0534   1.0754   1.0864
     1.1403   1.1711   1.2081   1.2513   1.2881   1.3075   1.3315   1.3577
     1.4039   1.4213   1.4484   1.4866   1.5109   1.5703   1.5779   1.5873
     1.6282   1.6422   1.6838   1.6946   1.7052   1.7371   1.7496   1.7813
     1.7928   1.8210   1.8362   1.8774   1.8954   1.9557   1.9800   2.0149
     2.0497   2.1044   2.1151   2.2625   2.3047   2.4227   2.6030   2.6856

          k = 0.3750 0.3750-0.1250 (132616 PWs)   bands (ev):

   -18.4862 -18.4619 -18.4604 -18.3484 -18.3442 -18.3419 -18.3409 -18.3361
   -18.3346 -18.3278 -18.3252 -18.3198 -18.3142 -18.3117 -18.2965 -18.2889
   -18.2834 -18.2776 -18.2745 -18.2732 -18.2708 -18.2676 -18.2664 -18.2583
   -18.2581 -18.2519 -18.2250 -18.2213 -18.2133 -18.2095 -18.2040 -18.2005
   -18.1904 -18.1891 -18.1884 -18.1814 -18.1741 -18.1672 -18.1120 -18.1112
   -18.1037 -18.0977 -18.0921 -18.0896 -18.0797 -18.0761 -18.0735 -18.0704
    -9.5755  -9.4454  -9.2669  -9.2069  -9.1764  -9.1326  -9.1002  -9.0510
    -9.0204  -8.9781  -8.9520  -8.9264  -8.9073  -8.8720  -8.8147  -8.7793
    -8.7658  -8.7465  -8.7063  -8.6611  -8.5906  -8.5604  -8.4820  -8.4697
    -5.2651  -5.2534  -5.2469  -5.2397  -5.2354  -5.2300  -5.2253  -5.2139
    -5.2084  -5.1220  -5.1180  -5.1065  -5.1024  -5.0723  -5.0661  -5.0606
    -5.0492  -5.0424  -4.9967  -4.9851  -4.9800  -4.9711  -4.9678  -4.9544
    -4.1715  -4.0073  -3.8932  -3.7256  -3.6405  -3.4720  -3.3599  -3.1690
    -0.6280  -0.5667  -0.4939  -0.4688  -0.4371  -0.2760  -0.2073  -0.0789
    -0.0518   0.0286   0.0810   0.1344   0.2653   0.3667   0.4438   0.4588
     0.4983   0.5275   0.5589   0.5824   0.6414   0.6612   0.7216   0.7357
     0.8148   0.8841   0.8944   0.9451   0.9803   1.0501   1.0782   1.0867
     1.1377   1.1579   1.2075   1.2459   1.2633   1.3041   1.3326   1.3687
     1.3895   1.4309   1.4551   1.4855   1.5161   1.5291   1.5795   1.6016
     1.6454   1.6526   1.6724   1.6919   1.7058   1.7341   1.7594   1.7771
     1.7981   1.8086   1.8454   1.8739   1.8832   1.9588   1.9816   2.0270
     2.0513   2.1024   2.1139   2.2743   2.3140   2.4243   2.6036   2.6634

          k =-0.3750 0.3750 0.1250 (132616 PWs)   bands (ev):

   -18.4862 -18.4619 -18.4604 -18.3484 -18.3442 -18.3419 -18.3409 -18.3361
   -18.3346 -18.3278 -18.3252 -18.3198 -18.3142 -18.3117 -18.2965 -18.2889
   -18.2834 -18.2776 -18.2745 -18.2732 -18.2708 -18.2676 -18.2664 -18.2583
   -18.2581 -18.2519 -18.2250 -18.2213 -18.2133 -18.2095 -18.2039 -18.2005
   -18.1904 -18.1891 -18.1884 -18.1814 -18.1741 -18.1672 -18.1120 -18.1112
   -18.1037 -18.0977 -18.0921 -18.0896 -18.0797 -18.0761 -18.0735 -18.0704
    -9.5756  -9.4454  -9.2657  -9.2069  -9.1809  -9.1249  -9.1012  -9.0587
    -9.0211  -8.9681  -8.9562  -8.9258  -8.9081  -8.8721  -8.8116  -8.7837
    -8.7683  -8.7454  -8.7044  -8.6600  -8.5925  -8.5596  -8.4820  -8.4697
    -5.2651  -5.2534  -5.2466  -5.2395  -5.2353  -5.2308  -5.2256  -5.2135
    -5.2084  -5.1220  -5.1179  -5.1067  -5.1024  -5.0720  -5.0663  -5.0605
    -5.0494  -5.0424  -4.9968  -4.9851  -4.9799  -4.9712  -4.9678  -4.9544
    -4.1777  -3.9823  -3.9147  -3.7304  -3.6344  -3.4499  -3.3868  -3.1626
    -0.6347  -0.5673  -0.5161  -0.4768  -0.3676  -0.3123  -0.1701  -0.1335
    -0.0450   0.0328   0.0807   0.1616   0.2626   0.3392   0.4225   0.4592
     0.5141   0.5444   0.5750   0.5952   0.6366   0.6705   0.7189   0.7433
     0.8076   0.8610   0.8936   0.9247   0.9534   1.0297   1.0947   1.1141
     1.1303   1.1786   1.2014   1.2486   1.2632   1.3059   1.3457   1.3666
     1.4024   1.4345   1.4540   1.4716   1.5230   1.5397   1.5612   1.5973
     1.6268   1.6682   1.6829   1.6941   1.7183   1.7284   1.7395   1.7678
     1.7849   1.8376   1.8469   1.8820   1.9162   1.9363   1.9703   2.0251
     2.0432   2.0702   2.1560   2.2692   2.3016   2.4343   2.5579   2.7070

          k =-0.3750-0.3750 0.3750 (132612 PWs)   bands (ev):

   -18.4862 -18.4619 -18.4604 -18.3484 -18.3442 -18.3419 -18.3409 -18.3361
   -18.3346 -18.3278 -18.3252 -18.3198 -18.3142 -18.3117 -18.2965 -18.2889
   -18.2833 -18.2776 -18.2746 -18.2732 -18.2708 -18.2676 -18.2664 -18.2583
   -18.2581 -18.2519 -18.2250 -18.2213 -18.2133 -18.2095 -18.2039 -18.2005
   -18.1904 -18.1891 -18.1884 -18.1814 -18.1741 -18.1672 -18.1120 -18.1112
   -18.1037 -18.0977 -18.0921 -18.0896 -18.0797 -18.0761 -18.0735 -18.0704
    -9.5744  -9.4426  -9.2569  -9.2107  -9.1839  -9.1365  -9.0913  -9.0615
    -9.0423  -8.9803  -8.9464  -8.9172  -8.9065  -8.8714  -8.8128  -8.7768
    -8.7631  -8.7469  -8.7011  -8.6569  -8.5850  -8.5637  -8.4840  -8.4756
    -5.2647  -5.2536  -5.2465  -5.2392  -5.2370  -5.2287  -5.2268  -5.2138
    -5.2083  -5.1218  -5.1181  -5.1064  -5.1025  -5.0721  -5.0658  -5.0604
    -5.0491  -5.0428  -4.9965  -4.9855  -4.9797  -4.9710  -4.9680  -4.9545
    -4.0705  -3.9245  -3.8376  -3.7275  -3.6393  -3.5855  -3.4975  -3.3426
    -0.5250  -0.4114  -0.3555  -0.3264  -0.2655  -0.1716  -0.1126  -0.0583
    -0.0267   0.0450   0.1114   0.2075   0.2573   0.3437   0.4178   0.4371
     0.4479   0.4819   0.5432   0.5683   0.6005   0.6145   0.6884   0.7230
     0.8317   0.8671   0.9159   0.9293   0.9683   1.0042   1.0245   1.0530
     1.0912   1.1192   1.1473   1.1859   1.2100   1.2581   1.2757   1.3241
     1.3515   1.3846   1.4398   1.4873   1.5274   1.5436   1.6147   1.6333
     1.6551   1.6679   1.6833   1.7139   1.7295   1.7540   1.7698   1.7806
     1.8240   1.8337   1.8521   1.8720   1.9055   1.9210   1.9667   1.9805
     2.0175   2.0448   2.0809   2.1271   2.1586   2.2694   2.3403   2.4311

          k =-0.3750 0.3750-0.3750 (132612 PWs)   bands (ev):

   -18.4862 -18.4619 -18.4604 -18.3484 -18.3442 -18.3419 -18.3409 -18.3361
   -18.3346 -18.3278 -18.3252 -18.3198 -18.3142 -18.3117 -18.2965 -18.2889
   -18.2833 -18.2776 -18.2746 -18.2732 -18.2708 -18.2676 -18.2664 -18.2583
   -18.2581 -18.2519 -18.2250 -18.2213 -18.2133 -18.2095 -18.2039 -18.2005
   -18.1904 -18.1891 -18.1884 -18.1814 -18.1741 -18.1672 -18.1120 -18.1112
   -18.1037 -18.0977 -18.0921 -18.0896 -18.0797 -18.0761 -18.0735 -18.0704
    -9.5745  -9.4423  -9.2583  -9.2046  -9.1881  -9.1360  -9.0938  -9.0672
    -9.0376  -8.9722  -8.9515  -8.9193  -8.9037  -8.8712  -8.8124  -8.7840
    -8.7607  -8.7443  -8.7005  -8.6570  -8.5855  -8.5633  -8.4842  -8.4754
    -5.2648  -5.2536  -5.2465  -5.2393  -5.2369  -5.2287  -5.2268  -5.2138
    -5.2084  -5.1217  -5.1181  -5.1065  -5.1024  -5.0717  -5.0661  -5.0603
    -5.0493  -5.0427  -4.9964  -4.9855  -4.9796  -4.9711  -4.9679  -4.9545
    -4.0832  -3.8782  -3.8486  -3.7728  -3.6041  -3.5705  -3.5338  -3.3335
    -0.5392  -0.4205  -0.3762  -0.2960  -0.2390  -0.1673  -0.0995  -0.0551
    -0.0333   0.0457   0.0989   0.1755   0.2646   0.3331   0.4003   0.4280
     0.4712   0.5119   0.5307   0.5815   0.5996   0.6178   0.7100   0.7263
     0.8108   0.8589   0.8753   0.9363   0.9625   1.0070   1.0360   1.0602
     1.0947   1.1308   1.1508   1.1778   1.2069   1.2604   1.2769   1.3215
     1.3662   1.3748   1.4467   1.4961   1.5201   1.5679   1.5961   1.6131
     1.6503   1.6723   1.6941   1.7115   1.7306   1.7529   1.7706   1.7905
     1.8084   1.8334   1.8575   1.8751   1.9071   1.9283   1.9487   1.9725
     2.0077   2.0537   2.0713   2.1392   2.1762   2.2528   2.3467   2.4345

          k = 0.3750-0.3750-0.3750 (132612 PWs)   bands (ev):

   -18.4862 -18.4619 -18.4604 -18.3484 -18.3442 -18.3419 -18.3409 -18.3361
   -18.3346 -18.3278 -18.3252 -18.3198 -18.3142 -18.3117 -18.2965 -18.2889
   -18.2833 -18.2776 -18.2746 -18.2732 -18.2708 -18.2676 -18.2664 -18.2583
   -18.2581 -18.2519 -18.2250 -18.2213 -18.2133 -18.2095 -18.2040 -18.2005
   -18.1904 -18.1891 -18.1884 -18.1814 -18.1741 -18.1672 -18.1120 -18.1112
   -18.1037 -18.0977 -18.0921 -18.0896 -18.0797 -18.0761 -18.0735 -18.0704
    -9.5745  -9.4425  -9.2572  -9.2083  -9.1863  -9.1340  -9.0894  -9.0711
    -9.0411  -8.9703  -8.9523  -8.9184  -8.9028  -8.8726  -8.8110  -8.7818
    -8.7650  -8.7433  -8.7013  -8.6553  -8.5866  -8.5630  -8.4840  -8.4755
    -5.2648  -5.2536  -5.2462  -5.2386  -5.2372  -5.2295  -5.2270  -5.2134
    -5.2082  -5.1218  -5.1180  -5.1066  -5.1025  -5.0717  -5.0660  -5.0602
    -5.0493  -5.0428  -4.9965  -4.9855  -4.9796  -4.9711  -4.9679  -4.9545
    -4.0797  -3.9002  -3.8448  -3.7404  -3.6351  -3.5768  -3.5104  -3.3377
    -0.5407  -0.3903  -0.3634  -0.3139  -0.2676  -0.1664  -0.1307  -0.0677
    -0.0091   0.0181   0.1387   0.2384   0.2578   0.3097   0.4007   0.4157
     0.4600   0.4955   0.5409   0.5659   0.6228   0.6386   0.6862   0.7258
     0.8177   0.8483   0.8971   0.9288   0.9609   1.0013   1.0287   1.0594
     1.0868   1.1282   1.1620   1.1769   1.2262   1.2529   1.2797   1.3317
     1.3550   1.3793   1.4588   1.4846   1.5248   1.5599   1.5757   1.5876
     1.6508   1.6618   1.6895   1.7336   1.7375   1.7630   1.7769   1.8020
     1.8218   1.8390   1.8544   1.8760   1.8904   1.9189   1.9526   1.9753
     2.0246   2.0417   2.0846   2.1283   2.1823   2.2729   2.2966   2.4503

     highest occupied level (ev):     3.1612

!    total energy              =   -2256.28885817 Ry
     estimated scf accuracy    <          9.8E-11 Ry

     The total energy is the sum of the following terms:
     one-electron contribution =    -984.68621548 Ry
     hartree contribution      =     620.43429346 Ry
     xc contribution           =    -647.46508430 Ry
     ewald contribution        =   -1244.57185184 Ry

     convergence has been achieved in  15 iterations

     Forces acting on atoms (cartesian axes, Ry/au):

     atom    1 type  1   force =    -0.00120804   -0.00176456    0.00192380
     atom    2 type  2   force =    -0.01735754   -0.00871317    0.00548470
     atom    3 type  3   force =     0.01427850    0.00239839    0.00297799
     atom    4 type  3   force =     0.00064880    0.01632072    0.01395534
     atom    5 type  3   force =     0.01085766    0.00542995   -0.00794151
     atom    6 type  1   force =    -0.00112271   -0.00210132   -0.00321550
     atom    7 type  2   force =    -0.00061628   -0.02076634   -0.00330609
     atom    8 type  3   force =     0.00010200   -0.00055399    0.00310902
     atom    9 type  3   force =    -0.00055979    0.00238995   -0.01427466
     atom   10 type  3   force =    -0.00118556    0.01702282    0.00010008
     atom   11 type  1   force =    -0.00239449    0.00259060    0.00214941
     atom   12 type  2   force =    -0.02068435    0.01406270    0.00583530
     atom   13 type  3   force =    -0.02950772   -0.00183512    0.00770875
     atom   14 type  3   force =     0.00049463   -0.00026852   -0.00008829
     atom   15 type  3   force =     0.01394914   -0.01107735   -0.01688759
     atom   16 type  1   force =    -0.00154916    0.00014387   -0.00009708
     atom   17 type  2   force =     0.00664808    0.00609926   -0.00257835
     atom   18 type  3   force =    -0.00568824   -0.00558399   -0.00430086
     atom   19 type  3   force =    -0.00071874   -0.00142919    0.00208024
     atom   20 type  3   force =    -0.00447731   -0.01645317    0.00652063
     atom   21 type  1   force =    -0.00426536    0.00071234    0.00581805
     atom   22 type  2   force =    -0.01585936   -0.02283308    0.02789332
     atom   23 type  3   force =     0.00879642   -0.00103403   -0.00162446
     atom   24 type  3   force =    -0.00288469   -0.00371647    0.00660191
     atom   25 type  3   force =    -0.00248551    0.01583208    0.00501413
     atom   26 type  1   force =     0.00575430    0.00242606   -0.00592858
     atom   27 type  2   force =     0.00320818    0.00152800   -0.01271186
     atom   28 type  3   force =    -0.00051879   -0.00323963    0.00165710
     atom   29 type  3   force =    -0.00159105    0.00316469   -0.01637221
     atom   30 type  3   force =    -0.00231959    0.00225897    0.00296891
     atom   31 type  1   force =    -0.00295856    0.00082663    0.00455171
     atom   32 type  2   force =     0.03960757    0.00049710    0.00395096
     atom   33 type  3   force =     0.00888254   -0.00156834    0.00136107
     atom   34 type  3   force =    -0.01168295    0.00207261    0.00220859
     atom   35 type  3   force =    -0.00403450   -0.00734439    0.00241187
     atom   36 type  1   force =     0.00056716    0.00496215    0.00400599
     atom   37 type  2   force =     0.00284233    0.00470622   -0.00694466
     atom   38 type  3   force =     0.00596109    0.00064144   -0.00110088
     atom   39 type  3   force =     0.00506957    0.00799972   -0.01652684
     atom   40 type  3   force =     0.00800233   -0.00380359   -0.00638945

     Total force =     0.100766     Total SCF correction =     0.000053


     Computing stress (Cartesian axis) and pressure

          total   stress  (Ry/bohr**3)                   (kbar)     P=       -7.49
  -0.00004094   0.00000406  -0.00000261           -6.02        0.60       -0.38
   0.00000406  -0.00005494   0.00000091            0.60       -8.08        0.13
  -0.00000261   0.00000091  -0.00005693           -0.38        0.13       -8.37

 
     init_run     :     19.84s CPU     16.95s WALL (       1 calls)
     electrons    :    200.81s CPU    212.32s WALL (       1 calls)
     forces       :      8.79s CPU      3.94s WALL (       1 calls)
     stress       :     31.97s CPU     31.45s WALL (       1 calls)

     Called by init_run:
     wfcinit      :     12.10s CPU     13.88s WALL (       1 calls)
                                       13.88s GPU  (       1 calls)
     potinit      :      4.48s CPU      1.42s WALL (       1 calls)
     hinit0       :      2.70s CPU      0.96s WALL (       1 calls)

     Called by electrons:
     c_bands      :    119.03s CPU    169.65s WALL (      16 calls)
     sum_band     :     22.17s CPU     21.13s WALL (      16 calls)
                                       21.13s GPU  (      16 calls)
     v_of_rho     :     55.23s CPU     16.76s WALL (      16 calls)
     mix_rho      :      6.53s CPU      5.12s WALL (      16 calls)

     Called by c_bands:
     init_us_2    :      2.37s CPU      3.13s WALL (     280 calls)
                                        3.12s GPU  (     280 calls)
     cegterg      :     78.95s CPU    126.87s WALL (     128 calls)

     Called by *egterg:
     cdiaghg      :     13.72s CPU     25.28s WALL (     630 calls)
                                       25.25s GPU  (     630 calls)
     h_psi        :     53.46s CPU     73.23s WALL (     646 calls)
                                       72.79s GPU  (     646 calls)
     g_psi        :      0.00s CPU      0.36s WALL (     510 calls)
                                        0.35s GPU  (     510 calls)

     Called by h_psi:
     h_psi:calbec :      0.32s CPU      9.93s WALL (     646 calls)
                                        9.92s GPU  (     646 calls)
     vloc_psi     :     38.68s CPU     53.39s WALL (     646 calls)
                                       52.48s GPU  (     646 calls)
     add_vuspsi   :      0.32s CPU      9.84s WALL (     646 calls)
                                        9.83s GPU  (     646 calls)

     General routines
     calbec       :      0.32s CPU      0.41s WALL (     686 calls)
     fft          :     25.65s CPU      6.54s WALL (     185 calls)
                                        0.00s GPU  (       6 calls)
     ffts         :      2.62s CPU      0.68s WALL (      16 calls)
     fftw         :      0.58s CPU     61.94s WALL (   10358 calls)
                                       46.34s GPU  (   10358 calls)
 
     Parallel routines
 
     PWSCF        :   4m22.15s CPU   4m25.47s WALL

 
   This run was terminated on:  23:57:14  22Apr2021            

=------------------------------------------------------------------------------=
   JOB DONE.
=------------------------------------------------------------------------------=
