
     Program PWSCF v.6.7MaX starts on 22Apr2021 at 21:29:43 

     This program is part of the open-source Quantum ESPRESSO suite
     for quantum simulation of materials; please cite
         "P. Giannozzi et al., J. Phys.:Condens. Matter 21 395502 (2009);
         "P. Giannozzi et al., J. Phys.:Condens. Matter 29 465901 (2017);
         "P. Giannozzi et al., J. Chem. Phys. 152 154105 (2020);
          URL http://www.quantum-espresso.org", 
     in publications or presentations arising from this work. More details at
     http://www.quantum-espresso.org/quote

     Parallel version (MPI & OpenMP), running on      16 processor cores
     Number of MPI processes:                 4
     Threads/MPI process:                     4

     MPI processes distributed on     1 nodes
     K-points division:     npool     =       4
     Reading input from ESP_72.pwi
Warning: card &CELL ignored
Warning: card / ignored

     Current dimensions of program PWSCF are:
     Max number of different atomic species (ntypx) = 10
     Max number of k-points (npk) =  40000
     Max angular momentum in pseudopotentials (lmaxx) =  3
     Message from routine read_pp_mesh:
     mesh size missing, using the one in header
     Message from routine read_pp_mesh:
     mesh size missing, using the one in header
     Message from routine read_pp_mesh:
     mesh size missing, using the one in header

     Subspace diagonalization in iterative solution of the eigenvalue problem:
     a serial algorithm will be used

 
     G-vector sticks info
     --------------------
     sticks:   dense  smooth     PW     G-vecs:    dense   smooth      PW
     Sum       12589   12589   3289              1061107  1061107  140905
 
     Using Slab Decomposition
 


     bravais-lattice index     =            0
     lattice parameter (alat)  =      23.7585  a.u.
     unit-cell volume          =   13410.8736 (a.u.)^3
     number of atoms/cell      =           40
     number of atomic types    =            3
     number of electrons       =       352.00
     number of Kohn-Sham states=          176
     kinetic-energy cutoff     =      70.0000  Ry
     charge density cutoff     =     280.0000  Ry
     scf convergence threshold =      1.0E-10
     mixing beta               =       0.7000
     number of iterations used =            8  plain     mixing
     Exchange-correlation= PBESOL
                           (   1   4  10   8   0   0   0)

     GPU acceleration is ACTIVE.


     celldm(1)=  23.758500  celldm(2)=   0.000000  celldm(3)=   0.000000
     celldm(4)=   0.000000  celldm(5)=   0.000000  celldm(6)=   0.000000

     crystal axes: (cart. coord. in units of alat)
               a(1) = (   1.000000   0.000000   0.000000 )  
               a(2) = (   0.000000   1.000000   0.000000 )  
               a(3) = (   0.000000   0.000000   1.000000 )  

     reciprocal axes: (cart. coord. in units 2 pi/alat)
               b(1) = (  1.000000  0.000000  0.000000 )  
               b(2) = (  0.000000  1.000000  0.000000 )  
               b(3) = (  0.000000  0.000000  1.000000 )  


     PseudoPot. # 1 for Cs read from file:
     /m100/home/userexternal/lmonacel/espresso/pseudo/Cs-nc-pbesol.upf
     MD5 check sum: 9d2f2206a14dc5b3b3f3fbfae186bed4
     Pseudo is Norm-conserving + core correction, Zval =  9.0
     Generated using ONCVPSP code by D. R. Hamann
     Using radial grid of 2384 points,  8 beta functions with: 
                l(1) =   0
                l(2) =   0
                l(3) =   1
                l(4) =   1
                l(5) =   2
                l(6) =   2
                l(7) =   3
                l(8) =   3

     PseudoPot. # 2 for Sn read from file:
     /m100/home/userexternal/lmonacel/espresso/pseudo/Sn-nc-pbesol.upf
     MD5 check sum: c2995d571af40102bfea7461443d92cf
     Pseudo is Norm-conserving + core correction, Zval = 14.0
     Generated using ONCVPSP code by D. R. Hamann
     Using radial grid of 1628 points,  6 beta functions with: 
                l(1) =   0
                l(2) =   0
                l(3) =   1
                l(4) =   1
                l(5) =   2
                l(6) =   2

     PseudoPot. # 3 for I  read from file:
     /m100/home/userexternal/lmonacel/espresso/pseudo/I-nc-pbesol.upf
     MD5 check sum: 80ed5ceb2eb9c553cfb6760a299d9c5b
     Pseudo is Norm-conserving + core correction, Zval =  7.0
     Generated using ONCVPSP code by D. R. Hamann
     Using radial grid of 1182 points,  6 beta functions with: 
                l(1) =   0
                l(2) =   0
                l(3) =   1
                l(4) =   1
                l(5) =   2
                l(6) =   2

     atomic species   valence    mass     pseudopotential
        Cs             9.00   132.90545     Cs( 1.00)
        Sn            14.00   118.71000     Sn( 1.00)
        I              7.00   126.90447     I ( 1.00)

     No symmetry found



   Cartesian axes

     site n.     atom                  positions (alat units)
         1           Cs  tau(   1) = (   0.2615399   0.2516209   0.2551965  )
         2           Sn  tau(   2) = (  -0.0059895   0.0028709   0.0117091  )
         3           I   tau(   3) = (   0.2429944   0.0103545  -0.0011414  )
         4           I   tau(   4) = (  -0.0093157  -0.0073848   0.2495653  )
         5           I   tau(   5) = (  -0.0214875   0.2466874  -0.0511321  )
         6           Cs  tau(   6) = (   0.2584290   0.2717063   0.7637515  )
         7           Sn  tau(   7) = (   0.0023762  -0.0026484   0.5205550  )
         8           I   tau(   8) = (   0.2446608  -0.0014023   0.5206649  )
         9           I   tau(   9) = (  -0.0226529  -0.0031102   0.7479897  )
        10           I   tau(  10) = (  -0.0050332   0.2337212   0.5225361  )
        11           Cs  tau(  11) = (   0.2681124   0.7769913   0.2586753  )
        12           Sn  tau(  12) = (   0.0030009   0.5179199   0.0003930  )
        13           I   tau(  13) = (   0.2403850   0.4746932  -0.0105443  )
        14           I   tau(  14) = (  -0.0159855   0.4417507   0.2540563  )
        15           I   tau(  15) = (   0.0457693   0.7511329   0.0025594  )
        16           Cs  tau(  16) = (   0.2621938   0.7732536   0.7458246  )
        17           Sn  tau(  17) = (  -0.0018522   0.4937953   0.4895545  )
        18           I   tau(  18) = (   0.2487615   0.4977765   0.4808097  )
        19           I   tau(  19) = (   0.0122062   0.5258003   0.7419598  )
        20           I   tau(  20) = (   0.0111508   0.7408877   0.4685874  )
        21           Cs  tau(  21) = (   0.7644580   0.2541364   0.2474182  )
        22           Sn  tau(  22) = (   0.4996382  -0.0028197   0.0076248  )
        23           I   tau(  23) = (   0.7434536  -0.0332595   0.0150339  )
        24           I   tau(  24) = (   0.4756390  -0.0102828   0.2387938  )
        25           I   tau(  25) = (   0.5438527   0.2580139   0.0321402  )
        26           Cs  tau(  26) = (   0.7602915   0.2642560   0.7498420  )
        27           Sn  tau(  27) = (   0.4999431   0.0021727   0.4938491  )
        28           I   tau(  28) = (   0.7469736   0.0091497   0.5070157  )
        29           I   tau(  29) = (   0.5006355   0.0239971   0.7428521  )
        30           I   tau(  30) = (   0.4929868   0.2348647   0.5019280  )
        31           Cs  tau(  31) = (   0.7868422   0.7398060   0.2501058  )
        32           Sn  tau(  32) = (   0.4878611   0.5022200   0.0013612  )
        33           I   tau(  33) = (   0.7579709   0.5397274  -0.0059529  )
        34           I   tau(  34) = (   0.4718758   0.5243229   0.2449178  )
        35           I   tau(  35) = (   0.4736648   0.7552265  -0.0179705  )
        36           Cs  tau(  36) = (   0.7759768   0.7465658   0.7344642  )
        37           Sn  tau(  37) = (   0.4900544   0.4850076   0.5033150  )
        38           I   tau(  38) = (   0.7555994   0.5036262   0.5050066  )
        39           I   tau(  39) = (   0.4546972   0.4666722   0.7448446  )
        40           I   tau(  40) = (   0.4901914   0.7363799   0.5334219  )

     number of k points=    32
                       cart. coord. in units 2pi/alat
        k(    1) = (   0.1250000   0.1250000   0.1250000), wk =   0.0625000
        k(    2) = (   0.1250000   0.1250000   0.3750000), wk =   0.0625000
        k(    3) = (   0.1250000   0.3750000   0.3750000), wk =   0.0625000
        k(    4) = (   0.3750000   0.3750000   0.3750000), wk =   0.0625000
        k(    5) = (  -0.1250000  -0.1250000   0.1250000), wk =   0.0625000
        k(    6) = (  -0.1250000   0.1250000  -0.1250000), wk =   0.0625000
        k(    7) = (   0.1250000  -0.1250000  -0.1250000), wk =   0.0625000
        k(    8) = (  -0.1250000  -0.1250000   0.3750000), wk =   0.0625000
        k(    9) = (  -0.1250000   0.1250000  -0.3750000), wk =   0.0625000
        k(   10) = (   0.1250000  -0.1250000  -0.3750000), wk =   0.0625000
        k(   11) = (   0.3750000  -0.1250000   0.1250000), wk =   0.0625000
        k(   12) = (  -0.3750000  -0.1250000  -0.1250000), wk =   0.0625000
        k(   13) = (   0.3750000   0.1250000  -0.1250000), wk =   0.0625000
        k(   14) = (  -0.3750000   0.1250000   0.1250000), wk =   0.0625000
        k(   15) = (  -0.1250000   0.3750000   0.1250000), wk =   0.0625000
        k(   16) = (  -0.1250000  -0.3750000  -0.1250000), wk =   0.0625000
        k(   17) = (   0.1250000   0.3750000  -0.1250000), wk =   0.0625000
        k(   18) = (   0.1250000  -0.3750000   0.1250000), wk =   0.0625000
        k(   19) = (  -0.1250000  -0.3750000   0.3750000), wk =   0.0625000
        k(   20) = (  -0.1250000   0.3750000  -0.3750000), wk =   0.0625000
        k(   21) = (   0.1250000  -0.3750000  -0.3750000), wk =   0.0625000
        k(   22) = (   0.3750000   0.1250000  -0.3750000), wk =   0.0625000
        k(   23) = (  -0.3750000  -0.1250000  -0.3750000), wk =   0.0625000
        k(   24) = (   0.3750000  -0.1250000   0.3750000), wk =   0.0625000
        k(   25) = (  -0.3750000   0.1250000   0.3750000), wk =   0.0625000
        k(   26) = (   0.3750000  -0.3750000   0.1250000), wk =   0.0625000
        k(   27) = (  -0.3750000  -0.3750000  -0.1250000), wk =   0.0625000
        k(   28) = (   0.3750000   0.3750000  -0.1250000), wk =   0.0625000
        k(   29) = (  -0.3750000   0.3750000   0.1250000), wk =   0.0625000
        k(   30) = (  -0.3750000  -0.3750000   0.3750000), wk =   0.0625000
        k(   31) = (  -0.3750000   0.3750000  -0.3750000), wk =   0.0625000
        k(   32) = (   0.3750000  -0.3750000  -0.3750000), wk =   0.0625000

     Dense  grid:  1061107 G-vectors     FFT dimensions: ( 128, 128, 128)

     Estimated max dynamical RAM per process >       6.82 GB

     Estimated total dynamical RAM >      27.27 GB

     Initial potential from superposition of free atoms

     starting charge  351.69472, renormalised to  352.00000
     Starting wfcs are  208 randomized atomic wfcs

     total cpu time spent up to now is       17.7 secs

     Self-consistent Calculation

     iteration #  1     ecut=    70.00 Ry     beta= 0.70
     Davidson diagonalization with overlap
     ethr =  1.00E-02,  avg # of iterations =  2.0

     Threshold (ethr) on eigenvalues was too large:
     Diagonalizing with lowered threshold

     Davidson diagonalization with overlap
     ethr =  2.16E-04,  avg # of iterations =  4.0

     total cpu time spent up to now is       38.6 secs

     total energy              =   -2256.04891428 Ry
     estimated scf accuracy    <       0.65989119 Ry

     iteration #  2     ecut=    70.00 Ry     beta= 0.70
     Davidson diagonalization with overlap
     ethr =  1.87E-04,  avg # of iterations =  3.3

     total cpu time spent up to now is       51.5 secs

     total energy              =   -2256.25370310 Ry
     estimated scf accuracy    <       0.29129720 Ry

     iteration #  3     ecut=    70.00 Ry     beta= 0.70
     Davidson diagonalization with overlap
     ethr =  8.28E-05,  avg # of iterations =  2.8

     total cpu time spent up to now is       63.5 secs

     total energy              =   -2256.30903556 Ry
     estimated scf accuracy    <       0.02182049 Ry

     iteration #  4     ecut=    70.00 Ry     beta= 0.70
     Davidson diagonalization with overlap
     ethr =  6.20E-06,  avg # of iterations =  4.2

     total cpu time spent up to now is       76.8 secs

     total energy              =   -2256.31668486 Ry
     estimated scf accuracy    <       0.00614666 Ry

     iteration #  5     ecut=    70.00 Ry     beta= 0.70
     Davidson diagonalization with overlap
     ethr =  1.75E-06,  avg # of iterations =  3.0

     total cpu time spent up to now is       88.8 secs

     total energy              =   -2256.31783711 Ry
     estimated scf accuracy    <       0.00106025 Ry

     iteration #  6     ecut=    70.00 Ry     beta= 0.70
     Davidson diagonalization with overlap
     ethr =  3.01E-07,  avg # of iterations =  3.8

     total cpu time spent up to now is      101.2 secs

     total energy              =   -2256.31802509 Ry
     estimated scf accuracy    <       0.00014132 Ry

     iteration #  7     ecut=    70.00 Ry     beta= 0.70
     Davidson diagonalization with overlap
     ethr =  4.01E-08,  avg # of iterations =  4.9

     total cpu time spent up to now is      115.1 secs

     total energy              =   -2256.31807940 Ry
     estimated scf accuracy    <       0.00002004 Ry

     iteration #  8     ecut=    70.00 Ry     beta= 0.70
     Davidson diagonalization with overlap
     ethr =  5.69E-09,  avg # of iterations =  3.4

     total cpu time spent up to now is      128.5 secs

     total energy              =   -2256.31808745 Ry
     estimated scf accuracy    <       0.00000416 Ry

     iteration #  9     ecut=    70.00 Ry     beta= 0.70
     Davidson diagonalization with overlap
     ethr =  1.18E-09,  avg # of iterations =  4.0

     total cpu time spent up to now is      142.5 secs

     total energy              =   -2256.31808890 Ry
     estimated scf accuracy    <       0.00000069 Ry

     iteration # 10     ecut=    70.00 Ry     beta= 0.70
     Davidson diagonalization with overlap
     ethr =  1.96E-10,  avg # of iterations =  3.5

     total cpu time spent up to now is      156.6 secs

     total energy              =   -2256.31808913 Ry
     estimated scf accuracy    <       0.00000014 Ry

     iteration # 11     ecut=    70.00 Ry     beta= 0.70
     Davidson diagonalization with overlap
     ethr =  4.10E-11,  avg # of iterations =  5.3

     total cpu time spent up to now is      171.6 secs

     total energy              =   -2256.31808921 Ry
     estimated scf accuracy    <       0.00000003 Ry

     iteration # 12     ecut=    70.00 Ry     beta= 0.70
     Davidson diagonalization with overlap
     ethr =  7.48E-12,  avg # of iterations =  5.7

     total cpu time spent up to now is      187.3 secs

     total energy              =   -2256.31808922 Ry
     estimated scf accuracy    <          8.5E-09 Ry

     iteration # 13     ecut=    70.00 Ry     beta= 0.70
     Davidson diagonalization with overlap
     ethr =  2.41E-12,  avg # of iterations =  3.9

     total cpu time spent up to now is      200.9 secs

     total energy              =   -2256.31808922 Ry
     estimated scf accuracy    <          7.9E-10 Ry

     iteration # 14     ecut=    70.00 Ry     beta= 0.70
     Davidson diagonalization with overlap
     ethr =  2.24E-13,  avg # of iterations =  5.4

     total cpu time spent up to now is      217.3 secs

     total energy              =   -2256.31808922 Ry
     estimated scf accuracy    <          2.9E-10 Ry

     iteration # 15     ecut=    70.00 Ry     beta= 0.70
     Davidson diagonalization with overlap
     ethr =  1.00E-13,  avg # of iterations =  3.6

     total cpu time spent up to now is      229.5 secs

     End of self-consistent calculation

          k = 0.1250 0.1250 0.1250 (132670 PWs)   bands (ev):

   -18.5281 -18.4632 -18.3859 -18.3703 -18.3673 -18.3574 -18.3563 -18.3556
   -18.3462 -18.3214 -18.3179 -18.3098 -18.3096 -18.3080 -18.3043 -18.3014
   -18.2937 -18.2871 -18.2845 -18.2769 -18.2681 -18.2505 -18.2467 -18.2413
   -18.2403 -18.2386 -18.2379 -18.2330 -18.2323 -18.2300 -18.2281 -18.2250
   -18.2223 -18.2216 -18.2206 -18.2191 -18.2145 -18.2130 -18.2111 -18.1999
   -18.1977 -18.1924 -18.1530 -18.1501 -18.1396 -18.1345 -18.1241 -18.1222
    -9.4289  -9.3317  -9.2841  -9.2609  -9.1816  -9.1194  -9.0493  -8.9903
    -8.9742  -8.9441  -8.9316  -8.9109  -8.8789  -8.8666  -8.8330  -8.8208
    -8.7905  -8.7649  -8.7394  -8.6906  -8.6513  -8.6006  -8.5897  -8.4982
    -5.2923  -5.2860  -5.2779  -5.2492  -5.2239  -5.2147  -5.1759  -5.1681
    -5.1482  -5.1438  -5.1339  -5.1223  -5.1134  -5.0788  -5.0760  -5.0581
    -5.0463  -5.0408  -5.0080  -4.9935  -4.9895  -4.9626  -4.9380  -4.9169
    -4.4512  -3.9776  -3.9210  -3.8882  -3.4264  -3.3860  -3.3236  -2.7611
    -0.7098  -0.6571  -0.6181  -0.5839  -0.5590  -0.5578  -0.5157  -0.4477
    -0.4229  -0.3824  -0.3119  -0.2443   0.4624   0.4945   0.5117   0.6139
     0.6475   0.6536   0.7333   0.7763   0.8091   0.8398   0.9209   0.9563
     0.9949   1.0494   1.0751   1.1000   1.1256   1.1529   1.1981   1.2106
     1.2218   1.2469   1.2734   1.3012   1.3353   1.3487   1.3676   1.4034
     1.4120   1.4416   1.4560   1.4728   1.4974   1.5136   1.5443   1.5589
     1.5886   1.6046   1.6159   1.6273   1.6374   1.6632   1.6724   1.7060
     1.7220   1.7516   1.7843   1.9537   1.9693   2.0427   2.0568   2.0793
     2.1225   2.1704   2.1910   2.2557   2.5957   2.6358   2.7155   3.0919

          k = 0.1250 0.1250 0.3750 (132608 PWs)   bands (ev):

   -18.5281 -18.4632 -18.3859 -18.3703 -18.3672 -18.3574 -18.3563 -18.3556
   -18.3462 -18.3214 -18.3179 -18.3098 -18.3096 -18.3080 -18.3043 -18.3014
   -18.2937 -18.2871 -18.2845 -18.2769 -18.2681 -18.2505 -18.2467 -18.2413
   -18.2402 -18.2386 -18.2380 -18.2330 -18.2323 -18.2300 -18.2281 -18.2250
   -18.2223 -18.2216 -18.2206 -18.2191 -18.2145 -18.2130 -18.2111 -18.1999
   -18.1977 -18.1924 -18.1530 -18.1501 -18.1396 -18.1345 -18.1241 -18.1222
    -9.4078  -9.3473  -9.2858  -9.2553  -9.1885  -9.1357  -9.0586  -9.0206
    -8.9598  -8.9391  -8.9192  -8.9026  -8.8781  -8.8595  -8.8336  -8.8048
    -8.7810  -8.7644  -8.7365  -8.7021  -8.6564  -8.6014  -8.5923  -8.5015
    -5.2923  -5.2860  -5.2778  -5.2492  -5.2237  -5.2146  -5.1760  -5.1679
    -5.1476  -5.1437  -5.1343  -5.1223  -5.1135  -5.0788  -5.0762  -5.0582
    -5.0462  -5.0411  -5.0082  -4.9934  -4.9897  -4.9630  -4.9381  -4.9170
    -4.3238  -4.1145  -3.8171  -3.7780  -3.5884  -3.5467  -3.2184  -2.9821
    -0.6562  -0.6100  -0.5866  -0.5657  -0.5105  -0.4794  -0.4357  -0.3640
    -0.1483  -0.0953  -0.0719   0.0447   0.4058   0.4483   0.4929   0.5312
     0.5609   0.5977   0.6434   0.6538   0.6902   0.7049   0.7596   0.8299
     0.8595   0.9118   1.0301   1.0564   1.0803   1.1079   1.1607   1.1878
     1.2194   1.2428   1.2539   1.2955   1.3378   1.3454   1.3561   1.3992
     1.4276   1.4472   1.4694   1.4808   1.5007   1.5396   1.5711   1.5808
     1.6023   1.6246   1.6391   1.6656   1.6733   1.6919   1.7075   1.7312
     1.7545   1.7875   1.8092   1.8764   1.9187   1.9700   1.9971   2.0280
     2.0728   2.1012   2.1829   2.2781   2.3704   2.4074   2.6946   2.8582

          k = 0.1250 0.3750 0.3750 (132616 PWs)   bands (ev):

   -18.5281 -18.4632 -18.3859 -18.3703 -18.3672 -18.3574 -18.3563 -18.3556
   -18.3462 -18.3214 -18.3179 -18.3098 -18.3096 -18.3080 -18.3043 -18.3014
   -18.2937 -18.2871 -18.2845 -18.2769 -18.2681 -18.2505 -18.2467 -18.2413
   -18.2402 -18.2386 -18.2380 -18.2330 -18.2323 -18.2300 -18.2281 -18.2250
   -18.2223 -18.2216 -18.2206 -18.2191 -18.2145 -18.2130 -18.2111 -18.1999
   -18.1977 -18.1924 -18.1530 -18.1501 -18.1396 -18.1345 -18.1241 -18.1222
    -9.3986  -9.3439  -9.2794  -9.2525  -9.2095  -9.1531  -9.0573  -9.0293
    -8.9591  -8.9386  -8.9186  -8.9047  -8.8784  -8.8422  -8.8245  -8.8146
    -8.7714  -8.7466  -8.7295  -8.7153  -8.6600  -8.6045  -8.5975  -8.5029
    -5.2922  -5.2859  -5.2777  -5.2494  -5.2241  -5.2147  -5.1758  -5.1677
    -5.1483  -5.1433  -5.1340  -5.1219  -5.1136  -5.0790  -5.0761  -5.0579
    -5.0462  -5.0410  -5.0083  -4.9936  -4.9900  -4.9624  -4.9382  -4.9171
    -4.2041  -4.0693  -3.9003  -3.7629  -3.6465  -3.5035  -3.3125  -3.1715
    -0.6281  -0.5821  -0.5682  -0.5069  -0.3160  -0.2570  -0.1986  -0.1633
    -0.1031   0.0014   0.0653   0.0971   0.3510   0.4018   0.4527   0.4973
     0.5453   0.5664   0.5737   0.6269   0.6565   0.6781   0.6928   0.7122
     0.8180   0.8703   0.9170   0.9809   1.0166   1.0333   1.0526   1.1019
     1.1541   1.2000   1.2313   1.2643   1.2783   1.3184   1.3503   1.3941
     1.4175   1.4542   1.4655   1.5013   1.5344   1.5730   1.5802   1.6106
     1.6339   1.6437   1.6584   1.6805   1.7143   1.7261   1.7409   1.7661
     1.7814   1.8014   1.8434   1.8612   1.8889   1.9212   1.9592   1.9635
     2.0080   2.0502   2.0864   2.1211   2.3188   2.4081   2.4687   2.5924

          k = 0.3750 0.3750 0.3750 (132612 PWs)   bands (ev):

   -18.5281 -18.4632 -18.3859 -18.3703 -18.3672 -18.3574 -18.3563 -18.3556
   -18.3462 -18.3214 -18.3179 -18.3098 -18.3096 -18.3080 -18.3043 -18.3014
   -18.2937 -18.2871 -18.2845 -18.2769 -18.2681 -18.2505 -18.2466 -18.2412
   -18.2402 -18.2386 -18.2380 -18.2330 -18.2323 -18.2300 -18.2281 -18.2250
   -18.2223 -18.2216 -18.2206 -18.2191 -18.2145 -18.2130 -18.2111 -18.1999
   -18.1977 -18.1924 -18.1530 -18.1501 -18.1396 -18.1345 -18.1241 -18.1222
    -9.3895  -9.3304  -9.2813  -9.2633  -9.2100  -9.1623  -9.0791  -9.0431
    -8.9668  -8.9364  -8.9130  -8.8986  -8.8655  -8.8408  -8.8039  -8.7938
    -8.7796  -8.7467  -8.7325  -8.7169  -8.6642  -8.6055  -8.6038  -8.5046
    -5.2923  -5.2860  -5.2777  -5.2493  -5.2241  -5.2147  -5.1755  -5.1679
    -5.1481  -5.1434  -5.1341  -5.1222  -5.1133  -5.0787  -5.0760  -5.0576
    -5.0463  -5.0409  -5.0082  -4.9936  -4.9896  -4.9625  -4.9385  -4.9169
    -4.0833  -3.9556  -3.8422  -3.7704  -3.6827  -3.6099  -3.4998  -3.3627
    -0.3849  -0.3448  -0.3000  -0.2675  -0.2073  -0.1740  -0.1390  -0.1005
    -0.0493   0.0092   0.0479   0.1603   0.3200   0.3622   0.3931   0.4207
     0.4697   0.5221   0.5401   0.5507   0.5882   0.6161   0.6543   0.7022
     0.8672   0.8973   0.9280   0.9538   0.9761   1.0042   1.0374   1.0637
     1.1156   1.1354   1.1684   1.1833   1.2265   1.2430   1.2584   1.3061
     1.3559   1.3832   1.4244   1.4733   1.5236   1.5654   1.5903   1.6348
     1.6630   1.6834   1.7044   1.7159   1.7538   1.7597   1.7828   1.8064
     1.8155   1.8224   1.8462   1.8623   1.8790   1.8920   1.9291   1.9425
     1.9568   2.0208   2.0528   2.0935   2.1217   2.1528   2.1836   2.2803

          k =-0.1250-0.1250 0.1250 (132670 PWs)   bands (ev):

   -18.5281 -18.4632 -18.3859 -18.3703 -18.3673 -18.3574 -18.3563 -18.3556
   -18.3462 -18.3214 -18.3179 -18.3098 -18.3096 -18.3080 -18.3043 -18.3014
   -18.2937 -18.2871 -18.2845 -18.2769 -18.2681 -18.2505 -18.2467 -18.2413
   -18.2403 -18.2386 -18.2379 -18.2330 -18.2323 -18.2300 -18.2281 -18.2250
   -18.2223 -18.2216 -18.2206 -18.2191 -18.2145 -18.2130 -18.2111 -18.1999
   -18.1977 -18.1924 -18.1530 -18.1501 -18.1396 -18.1345 -18.1241 -18.1222
    -9.4296  -9.3233  -9.2931  -9.2633  -9.1789  -9.1184  -9.0444  -8.9966
    -8.9718  -8.9415  -8.9306  -8.9161  -8.8804  -8.8695  -8.8385  -8.8135
    -8.7858  -8.7643  -8.7401  -8.6917  -8.6513  -8.6011  -8.5900  -8.4981
    -5.2924  -5.2860  -5.2779  -5.2492  -5.2238  -5.2147  -5.1758  -5.1683
    -5.1477  -5.1441  -5.1338  -5.1226  -5.1132  -5.0790  -5.0758  -5.0581
    -5.0462  -5.0408  -5.0080  -4.9935  -4.9895  -4.9625  -4.9381  -4.9169
    -4.4515  -3.9700  -3.9223  -3.8961  -3.4104  -3.3988  -3.3266  -2.7581
    -0.7250  -0.6861  -0.6246  -0.6047  -0.5538  -0.5320  -0.4851  -0.4409
    -0.4205  -0.3648  -0.3180  -0.2460   0.4610   0.4931   0.5131   0.6164
     0.6366   0.6591   0.7189   0.7820   0.8189   0.8496   0.9188   0.9610
     0.9965   1.0044   1.0522   1.1050   1.1337   1.1568   1.1880   1.2228
     1.2369   1.2536   1.2891   1.3117   1.3178   1.3402   1.3647   1.3987
     1.4183   1.4360   1.4626   1.4813   1.5000   1.5186   1.5427   1.5512
     1.5911   1.6069   1.6191   1.6369   1.6454   1.6631   1.6814   1.6981
     1.7190   1.7401   1.7789   1.9503   1.9747   2.0279   2.0553   2.0842
     2.1120   2.1780   2.1878   2.2417   2.5969   2.6444   2.7212   3.1148

          k =-0.1250 0.1250-0.1250 (132670 PWs)   bands (ev):

   -18.5281 -18.4632 -18.3859 -18.3703 -18.3673 -18.3574 -18.3563 -18.3556
   -18.3462 -18.3214 -18.3179 -18.3098 -18.3096 -18.3080 -18.3043 -18.3014
   -18.2937 -18.2871 -18.2845 -18.2769 -18.2681 -18.2505 -18.2467 -18.2413
   -18.2403 -18.2386 -18.2379 -18.2330 -18.2323 -18.2300 -18.2281 -18.2250
   -18.2223 -18.2216 -18.2206 -18.2191 -18.2145 -18.2130 -18.2111 -18.1999
   -18.1977 -18.1924 -18.1530 -18.1501 -18.1396 -18.1345 -18.1241 -18.1222
    -9.4296  -9.3242  -9.2946  -9.2591  -9.1768  -9.1252  -9.0436  -8.9934
    -8.9680  -8.9477  -8.9323  -8.9127  -8.8856  -8.8541  -8.8472  -8.8171
    -8.7846  -8.7616  -8.7423  -8.6905  -8.6525  -8.6016  -8.5891  -8.4980
    -5.2923  -5.2861  -5.2778  -5.2493  -5.2238  -5.2146  -5.1760  -5.1682
    -5.1476  -5.1441  -5.1337  -5.1224  -5.1133  -5.0789  -5.0760  -5.0581
    -5.0462  -5.0411  -5.0081  -4.9934  -4.9893  -4.9626  -4.9380  -4.9169
    -4.4515  -3.9804  -3.9150  -3.8905  -3.4257  -3.3933  -3.3183  -2.7601
    -0.7233  -0.6544  -0.6200  -0.6051  -0.5636  -0.5354  -0.5036  -0.4465
    -0.4069  -0.3898  -0.3179  -0.2414   0.4620   0.4980   0.5092   0.6138
     0.6388   0.6613   0.7220   0.7780   0.8203   0.8819   0.9217   0.9392
     0.9521   1.0362   1.0505   1.1151   1.1312   1.1665   1.1945   1.2126
     1.2240   1.2479   1.2758   1.3040   1.3294   1.3550   1.3630   1.4031
     1.4290   1.4471   1.4618   1.4835   1.4981   1.5034   1.5387   1.5562
     1.5903   1.6083   1.6293   1.6337   1.6451   1.6594   1.6850   1.6936
     1.7150   1.7301   1.7774   1.9364   1.9878   2.0389   2.0636   2.0815
     2.1258   2.1525   2.1927   2.2504   2.5973   2.6354   2.7206   3.1014

          k = 0.1250-0.1250-0.1250 (132670 PWs)   bands (ev):

   -18.5281 -18.4632 -18.3859 -18.3703 -18.3673 -18.3574 -18.3563 -18.3556
   -18.3462 -18.3214 -18.3179 -18.3098 -18.3096 -18.3080 -18.3043 -18.3014
   -18.2937 -18.2871 -18.2845 -18.2769 -18.2681 -18.2505 -18.2467 -18.2413
   -18.2403 -18.2386 -18.2379 -18.2330 -18.2323 -18.2300 -18.2281 -18.2250
   -18.2223 -18.2216 -18.2206 -18.2191 -18.2145 -18.2130 -18.2111 -18.1999
   -18.1977 -18.1924 -18.1530 -18.1501 -18.1396 -18.1345 -18.1241 -18.1222
    -9.4280  -9.3338  -9.2877  -9.2548  -9.1816  -9.1256  -9.0400  -8.9939
    -8.9699  -8.9425  -8.9338  -8.9164  -8.8830  -8.8542  -8.8480  -8.8207
    -8.7832  -8.7635  -8.7393  -8.6912  -8.6520  -8.6011  -8.5893  -8.4983
    -5.2923  -5.2861  -5.2778  -5.2493  -5.2238  -5.2146  -5.1760  -5.1680
    -5.1481  -5.1438  -5.1339  -5.1224  -5.1130  -5.0790  -5.0759  -5.0581
    -5.0463  -5.0410  -5.0080  -4.9935  -4.9893  -4.9625  -4.9380  -4.9170
    -4.4507  -3.9876  -3.9171  -3.8819  -3.4334  -3.3893  -3.3135  -2.7614
    -0.7165  -0.6707  -0.6265  -0.5866  -0.5712  -0.5361  -0.4937  -0.4587
    -0.4118  -0.3780  -0.3112  -0.2452   0.4616   0.4919   0.5141   0.6120
     0.6368   0.6589   0.7400   0.7738   0.8087   0.8546   0.9283   0.9477
     0.9881   1.0477   1.0722   1.0876   1.1296   1.1625   1.1939   1.2254
     1.2448   1.2547   1.2671   1.2844   1.3167   1.3409   1.3637   1.3804
     1.4119   1.4256   1.4551   1.4772   1.5010   1.5184   1.5347   1.5585
     1.5780   1.6084   1.6249   1.6474   1.6584   1.6638   1.6853   1.7076
     1.7241   1.7463   1.7793   1.9486   1.9833   2.0408   2.0603   2.0822
     2.1239   2.1480   2.1894   2.2590   2.5917   2.6343   2.7211   3.0959

          k =-0.1250-0.1250 0.3750 (132608 PWs)   bands (ev):

   -18.5281 -18.4632 -18.3859 -18.3703 -18.3672 -18.3574 -18.3563 -18.3556
   -18.3462 -18.3214 -18.3179 -18.3098 -18.3096 -18.3080 -18.3043 -18.3014
   -18.2937 -18.2871 -18.2845 -18.2769 -18.2681 -18.2505 -18.2467 -18.2413
   -18.2402 -18.2386 -18.2380 -18.2330 -18.2323 -18.2300 -18.2281 -18.2250
   -18.2223 -18.2216 -18.2206 -18.2191 -18.2145 -18.2130 -18.2111 -18.1999
   -18.1977 -18.1924 -18.1530 -18.1501 -18.1396 -18.1345 -18.1241 -18.1222
    -9.4095  -9.3382  -9.2968  -9.2554  -9.1850  -9.1360  -9.0518  -9.0265
    -8.9584  -8.9369  -8.9181  -8.9077  -8.8776  -8.8648  -8.8387  -8.7958
    -8.7784  -8.7621  -8.7385  -8.7032  -8.6564  -8.6020  -8.5925  -8.5014
    -5.2923  -5.2859  -5.2778  -5.2492  -5.2237  -5.2146  -5.1759  -5.1681
    -5.1470  -5.1442  -5.1342  -5.1226  -5.1133  -5.0790  -5.0760  -5.0582
    -5.0462  -5.0411  -5.0082  -4.9933  -4.9898  -4.9629  -4.9382  -4.9170
    -4.3247  -4.1116  -3.8162  -3.7864  -3.5767  -3.5514  -3.2246  -2.9763
    -0.6643  -0.6088  -0.6038  -0.5681  -0.5192  -0.4690  -0.4506  -0.3493
    -0.1150  -0.0840  -0.0548   0.0403   0.3851   0.4415   0.4759   0.5369
     0.5636   0.5962   0.6439   0.6554   0.6828   0.7136   0.7486   0.8415
     0.8574   0.9123   1.0172   1.0539   1.0716   1.1187   1.1516   1.1999
     1.2305   1.2411   1.2823   1.2908   1.3110   1.3412   1.3570   1.3983
     1.4239   1.4459   1.4743   1.4900   1.5119   1.5350   1.5705   1.5885
     1.6062   1.6203   1.6379   1.6578   1.6777   1.6889   1.7115   1.7280
     1.7683   1.7917   1.7982   1.8831   1.9165   1.9681   1.9748   2.0214
     2.0751   2.0956   2.1822   2.2687   2.3820   2.4147   2.6950   2.8741

          k =-0.1250 0.1250-0.3750 (132608 PWs)   bands (ev):

   -18.5281 -18.4632 -18.3859 -18.3703 -18.3672 -18.3574 -18.3563 -18.3556
   -18.3462 -18.3214 -18.3179 -18.3098 -18.3096 -18.3080 -18.3043 -18.3014
   -18.2937 -18.2871 -18.2845 -18.2769 -18.2681 -18.2505 -18.2467 -18.2413
   -18.2402 -18.2386 -18.2380 -18.2330 -18.2323 -18.2300 -18.2281 -18.2250
   -18.2223 -18.2216 -18.2206 -18.2191 -18.2145 -18.2130 -18.2111 -18.1999
   -18.1977 -18.1924 -18.1530 -18.1501 -18.1396 -18.1345 -18.1241 -18.1222
    -9.4102  -9.3362  -9.2962  -9.2595  -9.1793  -9.1387  -9.0558  -9.0237
    -8.9582  -8.9379  -8.9226  -8.9009  -8.8820  -8.8529  -8.8454  -8.7982
    -8.7768  -8.7638  -8.7393  -8.7012  -8.6575  -8.6025  -8.5917  -8.5013
    -5.2922  -5.2860  -5.2778  -5.2494  -5.2236  -5.2145  -5.1760  -5.1680
    -5.1469  -5.1442  -5.1341  -5.1225  -5.1134  -5.0790  -5.0762  -5.0582
    -5.0462  -5.0413  -5.0082  -4.9933  -4.9895  -4.9630  -4.9381  -4.9171
    -4.3254  -4.1098  -3.8264  -3.7765  -3.5920  -3.5348  -3.2254  -2.9785
    -0.6487  -0.6264  -0.5884  -0.5574  -0.5131  -0.4819  -0.4605  -0.3415
    -0.1314  -0.0986  -0.0587   0.0404   0.3862   0.4495   0.4945   0.5332
     0.5680   0.5975   0.6329   0.6562   0.6884   0.7186   0.7480   0.8289
     0.8711   0.8919   1.0307   1.0588   1.0901   1.1208   1.1578   1.1730
     1.2246   1.2450   1.2568   1.2806   1.3238   1.3355   1.3771   1.3934
     1.4356   1.4515   1.4683   1.4810   1.5223   1.5441   1.5666   1.5797
     1.6101   1.6206   1.6482   1.6583   1.6764   1.6894   1.7128   1.7244
     1.7417   1.7877   1.7953   1.8744   1.9233   1.9811   1.9905   2.0213
     2.0750   2.1020   2.1839   2.2614   2.3809   2.4167   2.6881   2.8649

          k = 0.1250-0.1250-0.3750 (132608 PWs)   bands (ev):

   -18.5281 -18.4632 -18.3859 -18.3703 -18.3672 -18.3574 -18.3563 -18.3556
   -18.3462 -18.3214 -18.3179 -18.3098 -18.3096 -18.3080 -18.3043 -18.3014
   -18.2937 -18.2871 -18.2845 -18.2769 -18.2681 -18.2505 -18.2467 -18.2413
   -18.2402 -18.2386 -18.2380 -18.2330 -18.2323 -18.2300 -18.2281 -18.2250
   -18.2223 -18.2216 -18.2206 -18.2191 -18.2145 -18.2130 -18.2111 -18.1999
   -18.1977 -18.1924 -18.1530 -18.1501 -18.1396 -18.1345 -18.1241 -18.1222
    -9.4067  -9.3475  -9.2911  -9.2504  -9.1901  -9.1361  -9.0518  -9.0247
    -8.9580  -8.9378  -8.9220  -8.9040  -8.8789  -8.8528  -8.8456  -8.8051
    -8.7756  -8.7604  -8.7385  -8.7023  -8.6568  -8.6020  -8.5919  -8.5016
    -5.2923  -5.2860  -5.2777  -5.2493  -5.2236  -5.2145  -5.1760  -5.1678
    -5.1475  -5.1438  -5.1344  -5.1224  -5.1131  -5.0791  -5.0761  -5.0581
    -5.0462  -5.0413  -5.0082  -4.9934  -4.9895  -4.9629  -4.9381  -4.9171
    -4.3225  -4.1161  -3.8313  -3.7621  -3.6017  -3.5341  -3.2189  -2.9821
    -0.6543  -0.6228  -0.5873  -0.5649  -0.5163  -0.4783  -0.4396  -0.3605
    -0.1409  -0.0789  -0.0603   0.0438   0.4007   0.4397   0.4815   0.5297
     0.5650   0.5912   0.6412   0.6616   0.6846   0.7040   0.7686   0.8311
     0.8678   0.9084   1.0196   1.0629   1.0928   1.1073   1.1470   1.1995
     1.2272   1.2446   1.2724   1.2792   1.3150   1.3444   1.3666   1.3861
     1.4170   1.4408   1.4630   1.4772   1.5030   1.5293   1.5581   1.5879
     1.6030   1.6241   1.6344   1.6662   1.6898   1.6972   1.7233   1.7459
     1.7651   1.7883   1.8045   1.8839   1.9188   1.9686   1.9844   2.0291
     2.0743   2.1019   2.1765   2.2818   2.3567   2.4208   2.6868   2.8624

          k = 0.3750-0.1250 0.1250 (132608 PWs)   bands (ev):

   -18.5281 -18.4632 -18.3859 -18.3703 -18.3672 -18.3574 -18.3563 -18.3556
   -18.3462 -18.3214 -18.3179 -18.3098 -18.3096 -18.3080 -18.3043 -18.3014
   -18.2937 -18.2871 -18.2845 -18.2769 -18.2681 -18.2505 -18.2466 -18.2413
   -18.2403 -18.2386 -18.2379 -18.2330 -18.2323 -18.2300 -18.2281 -18.2250
   -18.2223 -18.2216 -18.2206 -18.2191 -18.2145 -18.2130 -18.2111 -18.1999
   -18.1977 -18.1924 -18.1530 -18.1501 -18.1396 -18.1345 -18.1241 -18.1222
    -9.4113  -9.3429  -9.2821  -9.2596  -9.1840  -9.1454  -9.0464  -9.0005
    -8.9637  -8.9524  -8.9348  -8.9193  -8.8830  -8.8508  -8.8364  -8.7982
    -8.7774  -8.7494  -8.7312  -8.7012  -8.6612  -8.6057  -8.5948  -8.5001
    -5.2922  -5.2860  -5.2776  -5.2495  -5.2239  -5.2146  -5.1756  -5.1682
    -5.1475  -5.1439  -5.1335  -5.1222  -5.1135  -5.0791  -5.0763  -5.0576
    -5.0464  -5.0406  -5.0082  -4.9936  -4.9894  -4.9628  -4.9384  -4.9169
    -4.3225  -4.0927  -3.8294  -3.7783  -3.5944  -3.5334  -3.2513  -2.9952
    -0.7046  -0.6274  -0.5934  -0.5203  -0.4700  -0.4385  -0.4006  -0.3377
    -0.1464  -0.0872  -0.0470   0.0100   0.4317   0.4684   0.5051   0.5458
     0.5680   0.5892   0.6237   0.6647   0.6959   0.7256   0.7589   0.8049
     0.8682   0.9089   0.9772   1.0166   1.0755   1.1089   1.1306   1.1633
     1.2241   1.2422   1.2738   1.2930   1.3299   1.3555   1.3901   1.3918
     1.4202   1.4451   1.4585   1.4853   1.5207   1.5436   1.5645   1.5766
     1.5970   1.6262   1.6428   1.6530   1.6798   1.6904   1.7114   1.7307
     1.7554   1.7719   1.8059   1.8603   1.9263   1.9401   1.9682   2.0021
     2.0688   2.0965   2.2043   2.2230   2.3583   2.3917   2.6865   2.8076

          k =-0.3750-0.1250-0.1250 (132608 PWs)   bands (ev):

   -18.5281 -18.4632 -18.3859 -18.3703 -18.3672 -18.3574 -18.3563 -18.3556
   -18.3462 -18.3214 -18.3179 -18.3098 -18.3096 -18.3080 -18.3043 -18.3014
   -18.2937 -18.2871 -18.2845 -18.2769 -18.2681 -18.2505 -18.2466 -18.2413
   -18.2403 -18.2386 -18.2379 -18.2330 -18.2323 -18.2300 -18.2281 -18.2250
   -18.2223 -18.2216 -18.2206 -18.2191 -18.2145 -18.2130 -18.2111 -18.1999
   -18.1977 -18.1924 -18.1530 -18.1501 -18.1396 -18.1345 -18.1241 -18.1222
    -9.4108  -9.3440  -9.2848  -9.2550  -9.1886  -9.1388  -9.0533  -8.9962
    -8.9694  -8.9510  -8.9330  -8.9174  -8.8747  -8.8633  -8.8293  -8.7957
    -8.7833  -8.7505  -8.7309  -8.7014  -8.6599  -8.6046  -8.5955  -8.5003
    -5.2922  -5.2859  -5.2777  -5.2494  -5.2240  -5.2147  -5.1755  -5.1681
    -5.1480  -5.1436  -5.1337  -5.1221  -5.1137  -5.0790  -5.0763  -5.0576
    -5.0465  -5.0404  -5.0082  -4.9937  -4.9896  -4.9629  -4.9384  -4.9169
    -4.3229  -4.0870  -3.8492  -3.7694  -3.5945  -3.5204  -3.2601  -2.9941
    -0.6777  -0.6298  -0.5876  -0.5595  -0.4700  -0.4415  -0.3947  -0.3361
    -0.1309  -0.0877  -0.0553   0.0084   0.4273   0.4655   0.5018   0.5391
     0.5629   0.5976   0.6199   0.6762   0.6936   0.7396   0.7603   0.8048
     0.8577   0.9082   0.9645   1.0277   1.0674   1.1218   1.1469   1.1863
     1.2134   1.2471   1.2716   1.2933   1.3286   1.3533   1.3710   1.3965
     1.4240   1.4284   1.4634   1.4865   1.5025   1.5360   1.5563   1.5800
     1.5992   1.6102   1.6246   1.6510   1.6904   1.7020   1.7143   1.7505
     1.7568   1.7846   1.8091   1.8610   1.9157   1.9480   1.9733   1.9987
     2.0574   2.1078   2.1936   2.2449   2.3475   2.4113   2.6689   2.7972

          k = 0.3750 0.1250-0.1250 (132608 PWs)   bands (ev):

   -18.5281 -18.4632 -18.3859 -18.3703 -18.3672 -18.3574 -18.3563 -18.3556
   -18.3462 -18.3214 -18.3179 -18.3098 -18.3096 -18.3080 -18.3043 -18.3014
   -18.2937 -18.2871 -18.2845 -18.2769 -18.2681 -18.2505 -18.2466 -18.2413
   -18.2403 -18.2386 -18.2379 -18.2330 -18.2323 -18.2300 -18.2281 -18.2250
   -18.2223 -18.2216 -18.2206 -18.2191 -18.2145 -18.2130 -18.2111 -18.1999
   -18.1977 -18.1924 -18.1530 -18.1501 -18.1396 -18.1345 -18.1241 -18.1222
    -9.4114  -9.3422  -9.2771  -9.2671  -9.1870  -9.1380  -9.0471  -9.0029
    -8.9702  -8.9441  -8.9288  -8.9255  -8.8814  -8.8600  -8.8313  -8.7974
    -8.7737  -8.7519  -8.7319  -8.7020  -8.6596  -8.6050  -8.5960  -8.5002
    -5.2922  -5.2858  -5.2777  -5.2494  -5.2240  -5.2147  -5.1754  -5.1683
    -5.1475  -5.1439  -5.1336  -5.1224  -5.1134  -5.0791  -5.0761  -5.0577
    -5.0464  -5.0404  -5.0081  -4.9937  -4.9897  -4.9628  -4.9384  -4.9169
    -4.3229  -4.0892  -3.8388  -3.7768  -3.5911  -3.5287  -3.2579  -2.9912
    -0.7043  -0.6337  -0.5958  -0.5267  -0.4845  -0.4418  -0.3928  -0.3298
    -0.1101  -0.0821  -0.0533   0.0147   0.4271   0.4486   0.4941   0.5294
     0.5600   0.6129   0.6212   0.6658   0.6924   0.7378   0.7831   0.8083
     0.8601   0.8905   0.9672   1.0297   1.0780   1.0945   1.1315   1.1666
     1.2111   1.2629   1.2868   1.3217   1.3305   1.3447   1.3563   1.3932
     1.4045   1.4371   1.4721   1.4967   1.5093   1.5496   1.5653   1.5831
     1.5911   1.6149   1.6379   1.6569   1.6715   1.6941   1.7108   1.7479
     1.7653   1.7802   1.8095   1.8624   1.9071   1.9482   1.9699   1.9887
     2.0578   2.1036   2.2032   2.2223   2.3617   2.3981   2.6754   2.8240

          k =-0.3750 0.1250 0.1250 (132608 PWs)   bands (ev):

   -18.5281 -18.4632 -18.3859 -18.3703 -18.3672 -18.3574 -18.3563 -18.3556
   -18.3462 -18.3214 -18.3179 -18.3098 -18.3096 -18.3080 -18.3043 -18.3014
   -18.2937 -18.2871 -18.2845 -18.2769 -18.2681 -18.2505 -18.2466 -18.2413
   -18.2403 -18.2386 -18.2379 -18.2330 -18.2323 -18.2300 -18.2281 -18.2250
   -18.2223 -18.2216 -18.2206 -18.2191 -18.2145 -18.2130 -18.2111 -18.1999
   -18.1977 -18.1924 -18.1530 -18.1501 -18.1396 -18.1345 -18.1241 -18.1222
    -9.4090  -9.3473  -9.2881  -9.2473  -9.1897  -9.1448  -9.0448  -8.9994
    -8.9654  -8.9495  -8.9313  -8.9264  -8.8787  -8.8556  -8.8368  -8.8021
    -8.7707  -8.7496  -8.7323  -8.7014  -8.6611  -8.6052  -8.5949  -8.5004
    -5.2922  -5.2859  -5.2776  -5.2494  -5.2239  -5.2146  -5.1756  -5.1680
    -5.1480  -5.1436  -5.1338  -5.1222  -5.1133  -5.0792  -5.0762  -5.0576
    -5.0465  -5.0406  -5.0082  -4.9937  -4.9894  -4.9628  -4.9384  -4.9169
    -4.3206  -4.0949  -3.8416  -3.7667  -3.6003  -3.5245  -3.2525  -2.9963
    -0.6832  -0.6277  -0.5968  -0.5568  -0.4820  -0.4363  -0.3929  -0.3305
    -0.1294  -0.0846  -0.0418   0.0147   0.4330   0.4495   0.5023   0.5297
     0.5748   0.5943   0.6130   0.6645   0.7018   0.7368   0.7814   0.8100
     0.8454   0.9005   0.9607   1.0239   1.0633   1.1228   1.1727   1.1883
     1.2138   1.2458   1.2727   1.3076   1.3197   1.3444   1.3609   1.3855
     1.4103   1.4240   1.4552   1.4776   1.5181   1.5306   1.5516   1.5628
     1.5917   1.6297   1.6408   1.6615   1.6998   1.7095   1.7202   1.7472
     1.7631   1.7808   1.8109   1.8722   1.9162   1.9495   1.9644   2.0006
     2.0729   2.0849   2.1951   2.2278   2.3614   2.4069   2.6648   2.8024

          k =-0.1250 0.3750 0.1250 (132608 PWs)   bands (ev):

   -18.5281 -18.4632 -18.3859 -18.3703 -18.3672 -18.3574 -18.3563 -18.3556
   -18.3462 -18.3214 -18.3179 -18.3098 -18.3096 -18.3080 -18.3043 -18.3014
   -18.2937 -18.2871 -18.2845 -18.2769 -18.2681 -18.2505 -18.2467 -18.2413
   -18.2403 -18.2386 -18.2379 -18.2330 -18.2323 -18.2300 -18.2281 -18.2250
   -18.2223 -18.2216 -18.2206 -18.2191 -18.2145 -18.2130 -18.2111 -18.1999
   -18.1977 -18.1924 -18.1530 -18.1501 -18.1396 -18.1345 -18.1241 -18.1222
    -9.4121  -9.3470  -9.2868  -9.2443  -9.1895  -9.1480  -9.0403  -8.9943
    -8.9696  -8.9445  -8.9376  -8.9160  -8.8884  -8.8488  -8.8368  -8.8234
    -8.7658  -8.7506  -8.7269  -8.7048  -8.6558  -8.6048  -8.5949  -8.5006
    -5.2922  -5.2860  -5.2776  -5.2495  -5.2242  -5.2147  -5.1757  -5.1674
    -5.1476  -5.1440  -5.1345  -5.1224  -5.1130  -5.0791  -5.0758  -5.0579
    -5.0464  -5.0410  -5.0081  -4.9938  -4.9896  -4.9621  -4.9383  -4.9171
    -4.3258  -4.1345  -3.8027  -3.7665  -3.5948  -3.5561  -3.1943  -2.9743
    -0.6944  -0.6600  -0.5869  -0.5516  -0.5293  -0.5152  -0.4571  -0.3757
    -0.1104  -0.0855  -0.0577   0.0578   0.4205   0.4625   0.5206   0.5472
     0.5816   0.6175   0.6269   0.6472   0.6757   0.7030   0.7987   0.8182
     0.8832   0.9335   0.9944   1.0207   1.0839   1.1303   1.1598   1.1865
     1.2106   1.2544   1.2653   1.3054   1.3161   1.3545   1.3862   1.4080
     1.4196   1.4357   1.4719   1.4845   1.5051   1.5254   1.5657   1.5796
     1.6011   1.6175   1.6474   1.6569   1.6716   1.6852   1.7092   1.7300
     1.7682   1.7941   1.8159   1.8347   1.9093   1.9419   1.9688   2.0151
     2.0630   2.1352   2.1953   2.2872   2.3893   2.4385   2.6842   2.8512

          k =-0.1250-0.3750-0.1250 (132608 PWs)   bands (ev):

   -18.5281 -18.4632 -18.3859 -18.3703 -18.3672 -18.3574 -18.3563 -18.3556
   -18.3462 -18.3214 -18.3179 -18.3098 -18.3096 -18.3080 -18.3043 -18.3014
   -18.2937 -18.2871 -18.2845 -18.2769 -18.2681 -18.2505 -18.2467 -18.2413
   -18.2403 -18.2386 -18.2379 -18.2330 -18.2323 -18.2300 -18.2281 -18.2250
   -18.2223 -18.2216 -18.2206 -18.2191 -18.2145 -18.2130 -18.2111 -18.1999
   -18.1977 -18.1924 -18.1530 -18.1501 -18.1396 -18.1345 -18.1241 -18.1222
    -9.4132  -9.3460  -9.2834  -9.2477  -9.1914  -9.1438  -9.0463  -8.9922
    -8.9729  -8.9458  -8.9353  -8.9120  -8.8843  -8.8567  -8.8303  -8.8213
    -8.7752  -8.7445  -8.7306  -8.7040  -8.6549  -8.6037  -8.5960  -8.5005
    -5.2922  -5.2859  -5.2777  -5.2494  -5.2243  -5.2147  -5.1756  -5.1675
    -5.1477  -5.1440  -5.1345  -5.1223  -5.1134  -5.0789  -5.0759  -5.0579
    -5.0464  -5.0408  -5.0081  -4.9938  -4.9898  -4.9622  -4.9383  -4.9171
    -4.3276  -4.1308  -3.8050  -3.7666  -3.5909  -3.5563  -3.2008  -2.9712
    -0.6912  -0.6337  -0.5895  -0.5550  -0.5482  -0.5141  -0.4535  -0.3893
    -0.0999  -0.0953  -0.0487   0.0498   0.4248   0.4494   0.5283   0.5308
     0.5975   0.6083   0.6252   0.6523   0.6754   0.7027   0.7967   0.8282
     0.8867   0.9396   0.9882   1.0466   1.0776   1.1119   1.1305   1.1750
     1.2088   1.2618   1.2933   1.3172   1.3347   1.3505   1.3826   1.3934
     1.4312   1.4385   1.4638   1.4974   1.5146   1.5392   1.5482   1.5852
     1.5981   1.6174   1.6416   1.6516   1.6607   1.6840   1.7044   1.7262
     1.7594   1.8008   1.8248   1.8349   1.9066   1.9313   1.9655   2.0170
     2.0681   2.1321   2.2104   2.2804   2.3937   2.4465   2.6557   2.8644

          k = 0.1250 0.3750-0.1250 (132608 PWs)   bands (ev):

   -18.5281 -18.4632 -18.3859 -18.3703 -18.3672 -18.3574 -18.3563 -18.3556
   -18.3462 -18.3214 -18.3179 -18.3098 -18.3096 -18.3080 -18.3043 -18.3014
   -18.2937 -18.2871 -18.2845 -18.2769 -18.2681 -18.2505 -18.2467 -18.2413
   -18.2403 -18.2386 -18.2379 -18.2330 -18.2323 -18.2300 -18.2281 -18.2250
   -18.2223 -18.2216 -18.2206 -18.2191 -18.2145 -18.2130 -18.2111 -18.1999
   -18.1977 -18.1924 -18.1530 -18.1501 -18.1396 -18.1345 -18.1241 -18.1222
    -9.4150  -9.3353  -9.2954  -9.2498  -9.1882  -9.1401  -9.0434  -8.9982
    -8.9704  -8.9437  -8.9350  -8.9152  -8.8866  -8.8610  -8.8315  -8.8160
    -8.7695  -8.7444  -8.7319  -8.7055  -8.6546  -8.6045  -8.5961  -8.5004
    -5.2923  -5.2859  -5.2777  -5.2494  -5.2242  -5.2147  -5.1755  -5.1677
    -5.1471  -5.1444  -5.1344  -5.1226  -5.1132  -5.0791  -5.0757  -5.0580
    -5.0463  -5.0408  -5.0081  -4.9938  -4.9898  -4.9620  -4.9384  -4.9171
    -4.3291  -4.1260  -3.8004  -3.7838  -3.5797  -3.5565  -3.2064  -2.9663
    -0.6948  -0.6607  -0.5974  -0.5744  -0.5261  -0.5059  -0.4440  -0.3753
    -0.1023  -0.0725  -0.0481   0.0502   0.4192   0.4510   0.5153   0.5378
     0.5858   0.6139   0.6350   0.6538   0.6642   0.6982   0.7966   0.8303
     0.8805   0.9343   0.9906   1.0263   1.0822   1.1113   1.1431   1.2058
     1.2258   1.2498   1.2705   1.3100   1.3282   1.3466   1.3744   1.4030
     1.4338   1.4485   1.4732   1.4899   1.5100   1.5484   1.5631   1.5904
     1.6051   1.6160   1.6274   1.6511   1.6695   1.6754   1.7027   1.7365
     1.7579   1.7887   1.8121   1.8385   1.9073   1.9264   1.9669   2.0042
     2.0676   2.1384   2.1973   2.2759   2.3900   2.4649   2.6690   2.8734

          k = 0.1250-0.3750 0.1250 (132608 PWs)   bands (ev):

   -18.5281 -18.4632 -18.3859 -18.3703 -18.3672 -18.3574 -18.3563 -18.3556
   -18.3462 -18.3214 -18.3179 -18.3098 -18.3096 -18.3080 -18.3043 -18.3014
   -18.2937 -18.2871 -18.2845 -18.2769 -18.2681 -18.2505 -18.2467 -18.2413
   -18.2403 -18.2386 -18.2379 -18.2330 -18.2323 -18.2300 -18.2281 -18.2250
   -18.2223 -18.2216 -18.2206 -18.2191 -18.2145 -18.2130 -18.2111 -18.1999
   -18.1977 -18.1924 -18.1530 -18.1501 -18.1396 -18.1345 -18.1241 -18.1222
    -9.4145  -9.3391  -9.2933  -9.2453  -9.1853  -9.1499  -9.0419  -8.9945
    -8.9678  -8.9486  -8.9369  -8.9132  -8.8865  -8.8511  -8.8407  -8.8185
    -8.7660  -8.7465  -8.7312  -8.7044  -8.6561  -8.6056  -8.5947  -8.5003
    -5.2922  -5.2860  -5.2777  -5.2495  -5.2241  -5.2147  -5.1756  -5.1676
    -5.1470  -5.1445  -5.1343  -5.1224  -5.1133  -5.0790  -5.0759  -5.0580
    -5.0463  -5.0410  -5.0082  -4.9938  -4.9895  -4.9621  -4.9383  -4.9171
    -4.3281  -4.1309  -3.7943  -3.7767  -3.5873  -3.5613  -3.2005  -2.9698
    -0.6926  -0.6367  -0.5872  -0.5596  -0.5433  -0.5291  -0.4562  -0.3769
    -0.1070  -0.0741  -0.0503   0.0557   0.4141   0.4631   0.5208   0.5311
     0.5878   0.6004   0.6442   0.6522   0.6602   0.7137   0.7935   0.8238
     0.8764   0.9439   0.9878   1.0376   1.0937   1.1113   1.1368   1.1656
     1.2197   1.2455   1.2892   1.3101   1.3349   1.3636   1.3816   1.3972
     1.4353   1.4393   1.4635   1.4744   1.5266   1.5469   1.5685   1.5884
     1.6111   1.6251   1.6386   1.6536   1.6668   1.6741   1.7031   1.7302
     1.7587   1.7660   1.8105   1.8434   1.9122   1.9327   1.9688   2.0070
     2.0721   2.1290   2.2014   2.2785   2.3906   2.4598   2.6568   2.8690

          k =-0.1250-0.3750 0.3750 (132616 PWs)   bands (ev):

   -18.5281 -18.4632 -18.3859 -18.3703 -18.3672 -18.3574 -18.3563 -18.3556
   -18.3462 -18.3214 -18.3179 -18.3098 -18.3096 -18.3080 -18.3043 -18.3014
   -18.2937 -18.2871 -18.2845 -18.2769 -18.2681 -18.2505 -18.2467 -18.2413
   -18.2402 -18.2386 -18.2380 -18.2330 -18.2323 -18.2300 -18.2281 -18.2250
   -18.2223 -18.2216 -18.2206 -18.2191 -18.2145 -18.2130 -18.2111 -18.1999
   -18.1977 -18.1924 -18.1530 -18.1501 -18.1396 -18.1345 -18.1241 -18.1222
    -9.4017  -9.3263  -9.2994  -9.2566  -9.1999  -9.1515  -9.0557  -9.0317
    -8.9579  -8.9381  -8.9176  -8.9078  -8.8786  -8.8511  -8.8294  -8.8031
    -8.7616  -8.7504  -8.7319  -8.7162  -8.6597  -8.6053  -8.5976  -8.5028
    -5.2922  -5.2859  -5.2777  -5.2494  -5.2241  -5.2147  -5.1757  -5.1680
    -5.1478  -5.1436  -5.1340  -5.1222  -5.1134  -5.0792  -5.0759  -5.0580
    -5.0462  -5.0410  -5.0082  -4.9935  -4.9900  -4.9623  -4.9383  -4.9171
    -4.2100  -4.0489  -3.9149  -3.7814  -3.6275  -3.4921  -3.3360  -3.1588
    -0.6332  -0.5974  -0.5534  -0.5127  -0.3622  -0.2657  -0.2188  -0.0808
    -0.0626   0.0301   0.0599   0.0963   0.2896   0.4398   0.4413   0.4761
     0.5178   0.5603   0.5933   0.6314   0.6413   0.6655   0.7028   0.7478
     0.7976   0.8906   0.9196   0.9250   1.0045   1.0456   1.0852   1.1146
     1.1628   1.1977   1.2167   1.2695   1.2854   1.3213   1.3540   1.3710
     1.4127   1.4499   1.4832   1.5076   1.5399   1.5621   1.5875   1.6167
     1.6213   1.6482   1.6668   1.6893   1.7064   1.7292   1.7409   1.7568
     1.7722   1.8151   1.8276   1.8676   1.8894   1.9191   1.9436   1.9633
     1.9999   2.0476   2.0753   2.1343   2.3238   2.4232   2.4633   2.6044

          k =-0.1250 0.3750-0.3750 (132616 PWs)   bands (ev):

   -18.5281 -18.4632 -18.3859 -18.3703 -18.3672 -18.3574 -18.3563 -18.3556
   -18.3462 -18.3214 -18.3179 -18.3098 -18.3096 -18.3080 -18.3043 -18.3014
   -18.2937 -18.2871 -18.2845 -18.2769 -18.2681 -18.2505 -18.2467 -18.2413
   -18.2402 -18.2386 -18.2380 -18.2330 -18.2323 -18.2300 -18.2281 -18.2250
   -18.2223 -18.2216 -18.2206 -18.2191 -18.2145 -18.2130 -18.2111 -18.1999
   -18.1977 -18.1924 -18.1530 -18.1501 -18.1396 -18.1345 -18.1241 -18.1222
    -9.4019  -9.3268  -9.2990  -9.2558  -9.1974  -9.1553  -9.0560  -9.0312
    -8.9581  -8.9375  -8.9216  -8.9023  -8.8800  -8.8430  -8.8357  -8.8048
    -8.7640  -8.7470  -8.7356  -8.7124  -8.6610  -8.6062  -8.5964  -8.5027
    -5.2922  -5.2860  -5.2777  -5.2495  -5.2240  -5.2147  -5.1759  -5.1679
    -5.1478  -5.1437  -5.1339  -5.1220  -5.1135  -5.0791  -5.0761  -5.0579
    -5.0461  -5.0413  -5.0083  -4.9935  -4.9897  -4.9624  -4.9383  -4.9172
    -4.2101  -4.0503  -3.9162  -3.7739  -3.6328  -3.4908  -3.3340  -3.1620
    -0.6204  -0.5857  -0.5624  -0.5180  -0.3471  -0.2740  -0.2341  -0.0980
    -0.0515   0.0149   0.0552   0.1061   0.2839   0.4285   0.4598   0.4875
     0.5293   0.5615   0.5892   0.6129   0.6486   0.6693   0.6968   0.7760
     0.7880   0.8784   0.9156   0.9398   1.0265   1.0430   1.0656   1.1032
     1.1672   1.1910   1.2156   1.2570   1.2760   1.3259   1.3603   1.3935
     1.4130   1.4422   1.4699   1.5065   1.5423   1.5797   1.5965   1.6162
     1.6275   1.6525   1.6690   1.6798   1.6920   1.7246   1.7437   1.7603
     1.7791   1.7953   1.8253   1.8687   1.8989   1.9190   1.9491   1.9690
     2.0002   2.0481   2.0724   2.1384   2.3296   2.4190   2.4510   2.5972

          k = 0.1250-0.3750-0.3750 (132616 PWs)   bands (ev):

   -18.5281 -18.4632 -18.3859 -18.3703 -18.3672 -18.3574 -18.3563 -18.3556
   -18.3462 -18.3214 -18.3179 -18.3098 -18.3096 -18.3080 -18.3043 -18.3014
   -18.2937 -18.2871 -18.2845 -18.2769 -18.2681 -18.2505 -18.2467 -18.2413
   -18.2402 -18.2386 -18.2380 -18.2330 -18.2323 -18.2300 -18.2281 -18.2250
   -18.2223 -18.2216 -18.2206 -18.2191 -18.2145 -18.2130 -18.2111 -18.1999
   -18.1977 -18.1924 -18.1530 -18.1501 -18.1396 -18.1345 -18.1241 -18.1222
    -9.3981  -9.3418  -9.2867  -9.2505  -9.2083  -9.1513  -9.0538  -9.0317
    -8.9579  -8.9384  -8.9209  -8.9037  -8.8814  -8.8401  -8.8295  -8.8146
    -8.7607  -8.7530  -8.7294  -8.7142  -8.6606  -8.6055  -8.5967  -8.5030
    -5.2922  -5.2860  -5.2776  -5.2495  -5.2240  -5.2147  -5.1759  -5.1676
    -5.1482  -5.1434  -5.1341  -5.1221  -5.1132  -5.0792  -5.0760  -5.0579
    -5.0462  -5.0412  -5.0083  -4.9936  -4.9898  -4.9623  -4.9383  -4.9172
    -4.2014  -4.0709  -3.9018  -3.7751  -3.6345  -3.5022  -3.3095  -3.1749
    -0.6269  -0.5998  -0.5590  -0.5149  -0.3071  -0.2643  -0.1970  -0.1585
    -0.0967   0.0171   0.0532   0.1092   0.3543   0.3890   0.4605   0.4901
     0.5455   0.5637   0.5915   0.6279   0.6412   0.6704   0.6915   0.7144
     0.8147   0.8617   0.9229   0.9813   1.0037   1.0405   1.0721   1.1227
     1.1414   1.1950   1.2133   1.2552   1.2912   1.3286   1.3552   1.3769
     1.3997   1.4453   1.4769   1.5140   1.5267   1.5733   1.5853   1.6079
     1.6154   1.6493   1.6649   1.6823   1.7117   1.7139   1.7548   1.7775
     1.7878   1.8103   1.8358   1.8631   1.8807   1.9432   1.9523   1.9618
     2.0015   2.0580   2.0797   2.1163   2.3149   2.4072   2.4915   2.5768

          k = 0.3750 0.1250-0.3750 (132616 PWs)   bands (ev):

   -18.5281 -18.4632 -18.3859 -18.3703 -18.3672 -18.3574 -18.3563 -18.3556
   -18.3462 -18.3214 -18.3179 -18.3098 -18.3096 -18.3080 -18.3043 -18.3014
   -18.2937 -18.2871 -18.2845 -18.2769 -18.2681 -18.2505 -18.2466 -18.2412
   -18.2402 -18.2386 -18.2380 -18.2330 -18.2323 -18.2300 -18.2281 -18.2250
   -18.2223 -18.2216 -18.2206 -18.2191 -18.2145 -18.2130 -18.2111 -18.1999
   -18.1977 -18.1924 -18.1530 -18.1501 -18.1396 -18.1345 -18.1241 -18.1222
    -9.3965  -9.3276  -9.3006  -9.2699  -9.1859  -9.1461  -9.0659  -9.0388
    -8.9642  -8.9359  -8.9121  -8.9029  -8.8793  -8.8512  -8.8231  -8.7887
    -8.7760  -8.7596  -8.7318  -8.7054  -8.6630  -8.6048  -8.5998  -8.5028
    -5.2923  -5.2858  -5.2776  -5.2495  -5.2238  -5.2147  -5.1754  -5.1681
    -5.1469  -5.1442  -5.1343  -5.1228  -5.1133  -5.0789  -5.0760  -5.0577
    -5.0463  -5.0406  -5.0082  -4.9935  -4.9898  -4.9632  -4.9384  -4.9169
    -4.1977  -4.0032  -3.9471  -3.7441  -3.6698  -3.4704  -3.3953  -3.1879
    -0.6027  -0.5652  -0.4896  -0.4356  -0.3205  -0.2517  -0.2181  -0.1401
    -0.0289  -0.0014   0.0691   0.0936   0.2963   0.3617   0.4467   0.4790
     0.5076   0.5617   0.5883   0.6149   0.6524   0.6753   0.7169   0.7346
     0.8396   0.8816   0.9203   0.9603   0.9865   1.0524   1.0766   1.1161
     1.1504   1.1681   1.2061   1.2399   1.2701   1.3053   1.3332   1.3550
     1.3791   1.4304   1.4585   1.5149   1.5418   1.5760   1.5884   1.6198
     1.6225   1.6412   1.6639   1.6952   1.7105   1.7381   1.7526   1.7657
     1.7816   1.8136   1.8456   1.8588   1.8923   1.9124   1.9526   1.9668
     2.0017   2.0617   2.0736   2.1421   2.2287   2.3561   2.4279   2.5644

          k =-0.3750-0.1250-0.3750 (132616 PWs)   bands (ev):

   -18.5281 -18.4632 -18.3859 -18.3703 -18.3672 -18.3574 -18.3563 -18.3556
   -18.3462 -18.3214 -18.3179 -18.3098 -18.3096 -18.3080 -18.3043 -18.3014
   -18.2937 -18.2871 -18.2845 -18.2769 -18.2681 -18.2505 -18.2466 -18.2412
   -18.2402 -18.2386 -18.2380 -18.2330 -18.2323 -18.2300 -18.2281 -18.2250
   -18.2223 -18.2216 -18.2206 -18.2191 -18.2145 -18.2130 -18.2111 -18.1999
   -18.1977 -18.1924 -18.1530 -18.1501 -18.1396 -18.1345 -18.1241 -18.1222
    -9.3953  -9.3362  -9.2879  -9.2746  -9.1851  -9.1445  -9.0768  -9.0307
    -8.9662  -8.9379  -8.9120  -8.9008  -8.8747  -8.8503  -8.8198  -8.7925
    -8.7812  -8.7619  -8.7282  -8.7053  -8.6634  -8.6043  -8.5993  -8.5029
    -5.2922  -5.2859  -5.2776  -5.2494  -5.2238  -5.2146  -5.1755  -5.1679
    -5.1475  -5.1437  -5.1343  -5.1225  -5.1135  -5.0787  -5.0761  -5.0577
    -5.0463  -5.0406  -5.0082  -4.9935  -4.9898  -4.9634  -4.9383  -4.9169
    -4.1980  -4.0044  -3.9365  -3.7817  -3.6332  -3.4730  -3.3966  -3.1929
    -0.5869  -0.5589  -0.4985  -0.4358  -0.3112  -0.2099  -0.1872  -0.1526
    -0.0944  -0.0664   0.0305   0.0993   0.3300   0.4178   0.4522   0.4878
     0.5394   0.5498   0.5964   0.6097   0.6278   0.6619   0.7024   0.7467
     0.8131   0.8782   0.9333   0.9823   1.0030   1.0435   1.0871   1.1049
     1.1317   1.1767   1.2020   1.2472   1.2759   1.3093   1.3180   1.3570
     1.3909   1.4297   1.4598   1.5063   1.5228   1.5600   1.5841   1.6138
     1.6283   1.6526   1.6619   1.6893   1.7287   1.7404   1.7612   1.7676
     1.7783   1.8067   1.8219   1.8708   1.8944   1.9158   1.9538   1.9839
     2.0038   2.0581   2.0961   2.1407   2.2180   2.3687   2.4167   2.5423

          k = 0.3750-0.1250 0.3750 (132616 PWs)   bands (ev):

   -18.5281 -18.4632 -18.3859 -18.3703 -18.3672 -18.3574 -18.3563 -18.3556
   -18.3462 -18.3214 -18.3179 -18.3098 -18.3096 -18.3080 -18.3043 -18.3014
   -18.2937 -18.2871 -18.2845 -18.2769 -18.2681 -18.2505 -18.2466 -18.2412
   -18.2402 -18.2386 -18.2380 -18.2330 -18.2323 -18.2300 -18.2281 -18.2250
   -18.2223 -18.2216 -18.2206 -18.2191 -18.2145 -18.2130 -18.2111 -18.1999
   -18.1977 -18.1924 -18.1530 -18.1501 -18.1396 -18.1345 -18.1241 -18.1222
    -9.3975  -9.3257  -9.2919  -9.2827  -9.1771  -9.1507  -9.0699  -9.0364
    -8.9637  -8.9370  -8.9159  -8.8969  -8.8824  -8.8400  -8.8302  -8.7912
    -8.7743  -8.7633  -8.7300  -8.7036  -8.6645  -8.6058  -8.5984  -8.5027
    -5.2922  -5.2860  -5.2776  -5.2496  -5.2237  -5.2146  -5.1756  -5.1680
    -5.1468  -5.1442  -5.1342  -5.1226  -5.1134  -5.0789  -5.0761  -5.0577
    -5.0463  -5.0408  -5.0083  -4.9934  -4.9896  -4.9633  -4.9384  -4.9170
    -4.1996  -4.0008  -3.9375  -3.7801  -3.6384  -3.4714  -3.3968  -3.1913
    -0.6039  -0.5681  -0.4664  -0.4409  -0.3195  -0.2112  -0.1875  -0.1559
    -0.0878  -0.0538   0.0320   0.1011   0.3234   0.3986   0.4625   0.5005
     0.5342   0.5585   0.5935   0.6151   0.6290   0.6578   0.6993   0.7382
     0.8135   0.8835   0.9263   0.9787   1.0023   1.0486   1.0678   1.1220
     1.1513   1.1618   1.1915   1.2371   1.2841   1.3059   1.3284   1.3439
     1.3917   1.4367   1.4676   1.4986   1.5475   1.5701   1.5911   1.6191
     1.6274   1.6426   1.6725   1.6940   1.7147   1.7239   1.7491   1.7634
     1.7804   1.8050   1.8119   1.8636   1.9052   1.9310   1.9510   1.9765
     2.0146   2.0577   2.0797   2.1386   2.2207   2.3592   2.4284   2.5528

          k =-0.3750 0.1250 0.3750 (132616 PWs)   bands (ev):

   -18.5281 -18.4632 -18.3859 -18.3703 -18.3672 -18.3574 -18.3563 -18.3556
   -18.3462 -18.3214 -18.3179 -18.3098 -18.3096 -18.3080 -18.3043 -18.3014
   -18.2937 -18.2871 -18.2845 -18.2769 -18.2681 -18.2505 -18.2466 -18.2412
   -18.2402 -18.2386 -18.2380 -18.2330 -18.2323 -18.2300 -18.2281 -18.2250
   -18.2223 -18.2216 -18.2206 -18.2191 -18.2145 -18.2130 -18.2111 -18.1999
   -18.1977 -18.1924 -18.1530 -18.1501 -18.1396 -18.1345 -18.1241 -18.1222
    -9.3938  -9.3352  -9.3012  -9.2623  -9.1885  -9.1449  -9.0701  -9.0342
    -8.9647  -8.9369  -8.9126  -8.9030  -8.8765  -8.8457  -8.8303  -8.7945
    -8.7742  -8.7543  -8.7341  -8.7038  -8.6642  -8.6053  -8.5985  -8.5030
    -5.2922  -5.2859  -5.2776  -5.2495  -5.2238  -5.2146  -5.1756  -5.1678
    -5.1475  -5.1438  -5.1344  -5.1226  -5.1131  -5.0790  -5.0760  -5.0576
    -5.0463  -5.0408  -5.0082  -4.9935  -4.9896  -4.9632  -4.9384  -4.9170
    -4.1933  -4.0114  -3.9472  -3.7531  -3.6565  -3.4677  -3.3914  -3.1954
    -0.5953  -0.5527  -0.4873  -0.4456  -0.3272  -0.2430  -0.2315  -0.1408
    -0.0435  -0.0093   0.0723   0.1007   0.2925   0.3793   0.4586   0.4702
     0.5088   0.5585   0.5949   0.6179   0.6461   0.6704   0.7008   0.7522
     0.8278   0.8774   0.9270   0.9675   0.9993   1.0561   1.0858   1.1131
     1.1390   1.1581   1.2256   1.2410   1.2620   1.3109   1.3265   1.3545
     1.3792   1.4207   1.4643   1.5005   1.5151   1.5558   1.5863   1.6030
     1.6258   1.6468   1.6663   1.7070   1.7282   1.7365   1.7534   1.7696
     1.7907   1.8185   1.8548   1.8779   1.8953   1.9115   1.9515   1.9833
     1.9952   2.0617   2.0718   2.1442   2.2306   2.3555   2.4091   2.5504

          k = 0.3750-0.3750 0.1250 (132616 PWs)   bands (ev):

   -18.5281 -18.4632 -18.3859 -18.3703 -18.3672 -18.3574 -18.3563 -18.3556
   -18.3462 -18.3214 -18.3179 -18.3098 -18.3096 -18.3080 -18.3043 -18.3014
   -18.2937 -18.2871 -18.2845 -18.2769 -18.2681 -18.2505 -18.2466 -18.2413
   -18.2403 -18.2386 -18.2379 -18.2330 -18.2323 -18.2300 -18.2281 -18.2250
   -18.2223 -18.2216 -18.2206 -18.2191 -18.2145 -18.2130 -18.2111 -18.1999
   -18.1977 -18.1924 -18.1530 -18.1501 -18.1396 -18.1345 -18.1241 -18.1222
    -9.3998  -9.3331  -9.2989  -9.2596  -9.1828  -9.1590  -9.0535  -9.0027
    -8.9672  -8.9539  -8.9432  -8.9193  -8.8790  -8.8460  -8.8157  -8.7922
    -8.7650  -8.7472  -8.7297  -8.7126  -8.6618  -8.6073  -8.5996  -8.5027
    -5.2922  -5.2861  -5.2777  -5.2493  -5.2241  -5.2146  -5.1754  -5.1678
    -5.1469  -5.1443  -5.1342  -5.1223  -5.1133  -5.0790  -5.0761  -5.0576
    -5.0466  -5.0409  -5.0082  -4.9939  -4.9893  -4.9622  -4.9387  -4.9170
    -4.2002  -4.0444  -3.9124  -3.7594  -3.6536  -3.4906  -3.3498  -3.1866
    -0.6584  -0.5858  -0.5434  -0.4691  -0.3055  -0.2140  -0.1844  -0.1213
    -0.1087  -0.0030   0.0757   0.1020   0.3544   0.4213   0.4671   0.4807
     0.5210   0.5639   0.5909   0.6000   0.6438   0.6834   0.7024   0.7293
     0.8006   0.8727   0.9312   0.9640   1.0120   1.0311   1.0953   1.1153
     1.1524   1.1850   1.2216   1.2700   1.2750   1.3069   1.3411   1.3639
     1.4067   1.4355   1.4496   1.5146   1.5266   1.5615   1.5827   1.6091
     1.6294   1.6428   1.6526   1.6859   1.6977   1.7191   1.7387   1.7674
     1.7819   1.8068   1.8417   1.8587   1.8881   1.9193   1.9285   1.9569
     1.9900   2.0624   2.0828   2.1744   2.2179   2.3542   2.4644   2.5624

          k =-0.3750-0.3750-0.1250 (132616 PWs)   bands (ev):

   -18.5281 -18.4632 -18.3859 -18.3703 -18.3672 -18.3574 -18.3563 -18.3556
   -18.3462 -18.3214 -18.3179 -18.3098 -18.3096 -18.3080 -18.3043 -18.3014
   -18.2937 -18.2871 -18.2845 -18.2769 -18.2681 -18.2505 -18.2466 -18.2413
   -18.2403 -18.2386 -18.2379 -18.2330 -18.2323 -18.2300 -18.2281 -18.2250
   -18.2223 -18.2216 -18.2206 -18.2191 -18.2145 -18.2130 -18.2111 -18.1999
   -18.1977 -18.1924 -18.1530 -18.1501 -18.1396 -18.1345 -18.1241 -18.1222
    -9.3988  -9.3368  -9.2963  -9.2585  -9.1901  -9.1490  -9.0607  -8.9982
    -8.9728  -8.9529  -8.9403  -8.9189  -8.8756  -8.8494  -8.8132  -8.7865
    -8.7765  -8.7428  -8.7332  -8.7119  -8.6605  -8.6041  -8.6022  -8.5029
    -5.2923  -5.2860  -5.2778  -5.2492  -5.2242  -5.2147  -5.1753  -5.1677
    -5.1476  -5.1439  -5.1343  -5.1221  -5.1134  -5.0789  -5.0761  -5.0576
    -5.0466  -5.0407  -5.0081  -4.9940  -4.9895  -4.9623  -4.9386  -4.9169
    -4.2039  -4.0037  -3.9647  -3.7460  -3.6589  -3.4432  -3.3967  -3.1802
    -0.6468  -0.5800  -0.5518  -0.4737  -0.3063  -0.2431  -0.1668  -0.1273
    -0.0625  -0.0052   0.0547   0.0786   0.3608   0.4258   0.4548   0.4848
     0.5162   0.5494   0.5968   0.6255   0.6412   0.6761   0.6927   0.7619
     0.7975   0.8825   0.9340   0.9608   0.9953   1.0125   1.0823   1.1316
     1.1717   1.1927   1.2389   1.2631   1.2772   1.2968   1.3346   1.3708
     1.4028   1.4462   1.4686   1.4849   1.5135   1.5513   1.5554   1.5884
     1.6234   1.6358   1.6677   1.7003   1.7115   1.7230   1.7470   1.7602
     1.7975   1.8158   1.8414   1.8759   1.8855   1.9012   1.9343   1.9494
     1.9913   2.0667   2.0814   2.1798   2.2422   2.3515   2.4350   2.5615

          k = 0.3750 0.3750-0.1250 (132616 PWs)   bands (ev):

   -18.5281 -18.4632 -18.3859 -18.3703 -18.3672 -18.3574 -18.3563 -18.3556
   -18.3462 -18.3214 -18.3179 -18.3098 -18.3096 -18.3080 -18.3043 -18.3014
   -18.2937 -18.2871 -18.2845 -18.2769 -18.2681 -18.2505 -18.2466 -18.2413
   -18.2403 -18.2386 -18.2379 -18.2330 -18.2323 -18.2300 -18.2281 -18.2250
   -18.2223 -18.2216 -18.2206 -18.2191 -18.2145 -18.2130 -18.2111 -18.1999
   -18.1977 -18.1924 -18.1530 -18.1501 -18.1396 -18.1345 -18.1241 -18.1222
    -9.4005  -9.3267  -9.3021  -9.2655  -9.1876  -9.1467  -9.0563  -9.0055
    -8.9710  -8.9491  -8.9365  -8.9253  -8.8791  -8.8512  -8.8098  -8.7886
    -8.7689  -8.7473  -8.7302  -8.7138  -8.6601  -8.6045  -8.6027  -8.5028
    -5.2923  -5.2860  -5.2778  -5.2492  -5.2242  -5.2147  -5.1753  -5.1679
    -5.1469  -5.1443  -5.1343  -5.1224  -5.1132  -5.0791  -5.0759  -5.0576
    -5.0466  -5.0407  -5.0081  -4.9940  -4.9895  -4.9621  -4.9387  -4.9169
    -4.2053  -3.9956  -3.9684  -3.7517  -3.6583  -3.4444  -3.3966  -3.1761
    -0.6561  -0.5930  -0.5591  -0.4693  -0.2940  -0.2409  -0.1668  -0.1208
    -0.0525   0.0061   0.0653   0.0758   0.3674   0.4246   0.4480   0.4751
     0.4967   0.5517   0.5860   0.6392   0.6489   0.6704   0.6965   0.7630
     0.7910   0.8766   0.9192   0.9721   1.0040   1.0231   1.0695   1.1149
     1.1581   1.2067   1.2395   1.2641   1.2922   1.3083   1.3314   1.3591
     1.3905   1.4284   1.4573   1.5033   1.5331   1.5723   1.5877   1.5989
     1.6151   1.6374   1.6719   1.6814   1.6978   1.7224   1.7398   1.7612
     1.7916   1.8130   1.8372   1.8591   1.8837   1.9081   1.9375   1.9442
     1.9877   2.0636   2.0922   2.1762   2.2196   2.3608   2.4524   2.5763

          k =-0.3750 0.3750 0.1250 (132616 PWs)   bands (ev):

   -18.5281 -18.4632 -18.3859 -18.3703 -18.3672 -18.3574 -18.3563 -18.3556
   -18.3462 -18.3214 -18.3179 -18.3098 -18.3096 -18.3080 -18.3043 -18.3014
   -18.2937 -18.2871 -18.2845 -18.2769 -18.2681 -18.2505 -18.2466 -18.2413
   -18.2403 -18.2386 -18.2379 -18.2330 -18.2323 -18.2300 -18.2281 -18.2250
   -18.2223 -18.2216 -18.2206 -18.2191 -18.2145 -18.2130 -18.2111 -18.1999
   -18.1977 -18.1924 -18.1530 -18.1501 -18.1396 -18.1345 -18.1241 -18.1222
    -9.3970  -9.3392  -9.2990  -9.2552  -9.1868  -9.1554  -9.0540  -9.0006
    -8.9690  -8.9531  -8.9384  -8.9267  -8.8781  -8.8442  -8.8178  -8.7929
    -8.7637  -8.7483  -8.7276  -8.7139  -8.6616  -8.6067  -8.5996  -8.5030
    -5.2923  -5.2861  -5.2777  -5.2493  -5.2241  -5.2146  -5.1755  -5.1676
    -5.1475  -5.1438  -5.1344  -5.1223  -5.1131  -5.0791  -5.0760  -5.0575
    -5.0466  -5.0409  -5.0081  -4.9940  -4.9893  -4.9621  -4.9387  -4.9170
    -4.1956  -4.0484  -3.9151  -3.7712  -3.6404  -3.4865  -3.3484  -3.1915
    -0.6483  -0.5892  -0.5573  -0.4733  -0.2978  -0.1945  -0.1901  -0.1375
    -0.1041  -0.0015   0.0722   0.1082   0.3669   0.4138   0.4679   0.4885
     0.5262   0.5412   0.5809   0.6034   0.6500   0.6721   0.7111   0.7395
     0.8094   0.8624   0.9111   0.9632   1.0174   1.0469   1.0843   1.1268
     1.1597   1.2013   1.2180   1.2547   1.2816   1.3202   1.3259   1.3596
     1.4000   1.4293   1.4667   1.4880   1.5246   1.5406   1.5575   1.5832
     1.6128   1.6647   1.6780   1.6929   1.7018   1.7242   1.7482   1.7823
     1.7930   1.8150   1.8428   1.8646   1.8914   1.9222   1.9334   1.9546
     1.9790   2.0590   2.0865   2.1704   2.2174   2.3796   2.4466   2.5475

          k =-0.3750-0.3750 0.3750 (132612 PWs)   bands (ev):

   -18.5281 -18.4632 -18.3859 -18.3703 -18.3672 -18.3574 -18.3563 -18.3556
   -18.3462 -18.3214 -18.3179 -18.3098 -18.3096 -18.3080 -18.3043 -18.3014
   -18.2937 -18.2871 -18.2845 -18.2769 -18.2681 -18.2505 -18.2466 -18.2412
   -18.2402 -18.2386 -18.2380 -18.2330 -18.2323 -18.2300 -18.2281 -18.2250
   -18.2223 -18.2216 -18.2206 -18.2191 -18.2145 -18.2130 -18.2111 -18.1999
   -18.1977 -18.1924 -18.1530 -18.1501 -18.1396 -18.1345 -18.1241 -18.1222
    -9.3919  -9.3126  -9.2960  -9.2721  -9.2012  -9.1632  -9.0740  -9.0476
    -8.9653  -8.9362  -8.9121  -8.9007  -8.8678  -8.8471  -8.7997  -8.7931
    -8.7710  -8.7526  -8.7300  -8.7190  -8.6638  -8.6057  -8.6045  -8.5045
    -5.2923  -5.2860  -5.2777  -5.2493  -5.2240  -5.2147  -5.1754  -5.1681
    -5.1477  -5.1437  -5.1341  -5.1224  -5.1131  -5.0789  -5.0758  -5.0576
    -5.0463  -5.0409  -5.0082  -4.9936  -4.9897  -4.9624  -4.9385  -4.9169
    -4.0896  -3.9263  -3.8640  -3.7818  -3.6787  -3.5973  -3.5153  -3.3529
    -0.4029  -0.3616  -0.3088  -0.2843  -0.2526  -0.1613  -0.1067  -0.0569
    -0.0068   0.0423   0.0745   0.1649   0.2825   0.3292   0.3709   0.4137
     0.4610   0.5065   0.5527   0.5584   0.5919   0.6135   0.6522   0.7251
     0.8428   0.8971   0.9340   0.9531   0.9742   1.0004   1.0523   1.0682
     1.0916   1.1443   1.1646   1.2001   1.2199   1.2363   1.2716   1.2992
     1.3400   1.3845   1.4345   1.4949   1.5326   1.5670   1.6145   1.6334
     1.6567   1.6736   1.6992   1.7157   1.7284   1.7644   1.7756   1.7891
     1.8061   1.8383   1.8507   1.8582   1.8767   1.8924   1.9207   1.9373
     1.9759   2.0045   2.0636   2.0898   2.1143   2.1327   2.2257   2.2901

          k =-0.3750 0.3750-0.3750 (132612 PWs)   bands (ev):

   -18.5281 -18.4632 -18.3859 -18.3703 -18.3672 -18.3574 -18.3563 -18.3556
   -18.3462 -18.3214 -18.3179 -18.3098 -18.3096 -18.3080 -18.3043 -18.3014
   -18.2937 -18.2871 -18.2845 -18.2769 -18.2681 -18.2505 -18.2466 -18.2412
   -18.2402 -18.2386 -18.2380 -18.2330 -18.2323 -18.2300 -18.2281 -18.2250
   -18.2223 -18.2216 -18.2206 -18.2191 -18.2145 -18.2130 -18.2111 -18.1999
   -18.1977 -18.1924 -18.1530 -18.1501 -18.1396 -18.1345 -18.1241 -18.1222
    -9.3921  -9.3139  -9.2941  -9.2724  -9.1963  -9.1692  -9.0736  -9.0477
    -8.9651  -8.9363  -8.9152  -8.8953  -8.8722  -8.8367  -8.8119  -8.7879
    -8.7749  -8.7484  -8.7345  -8.7142  -8.6653  -8.6083  -8.6017  -8.5044
    -5.2923  -5.2861  -5.2777  -5.2495  -5.2240  -5.2147  -5.1756  -5.1680
    -5.1477  -5.1438  -5.1340  -5.1223  -5.1132  -5.0789  -5.0760  -5.0576
    -5.0463  -5.0411  -5.0083  -4.9936  -4.9894  -4.9625  -4.9385  -4.9170
    -4.0885  -3.9446  -3.8426  -3.7726  -3.6900  -3.6107  -3.4963  -3.3610
    -0.3997  -0.3481  -0.2989  -0.2543  -0.2192  -0.1979  -0.1410  -0.0846
    -0.0277   0.0317   0.0590   0.1803   0.2632   0.3484   0.3882   0.4443
     0.4828   0.5061   0.5416   0.5666   0.5929   0.6130   0.6511   0.6958
     0.8495   0.9009   0.9173   0.9426   0.9866   1.0394   1.0521   1.0814
     1.0870   1.1145   1.1653   1.1706   1.2142   1.2420   1.2858   1.2926
     1.3525   1.3758   1.4520   1.4881   1.5424   1.5832   1.5959   1.6166
     1.6529   1.6882   1.6930   1.7135   1.7293   1.7618   1.7836   1.7959
     1.8109   1.8221   1.8338   1.8705   1.8788   1.9077   1.9214   1.9482
     1.9702   2.0161   2.0522   2.0653   2.1149   2.1631   2.2151   2.2756

          k = 0.3750-0.3750-0.3750 (132612 PWs)   bands (ev):

   -18.5281 -18.4632 -18.3859 -18.3703 -18.3672 -18.3574 -18.3563 -18.3556
   -18.3462 -18.3214 -18.3179 -18.3098 -18.3096 -18.3080 -18.3043 -18.3014
   -18.2937 -18.2871 -18.2845 -18.2769 -18.2681 -18.2505 -18.2466 -18.2412
   -18.2402 -18.2386 -18.2380 -18.2330 -18.2323 -18.2300 -18.2281 -18.2250
   -18.2223 -18.2216 -18.2206 -18.2191 -18.2145 -18.2130 -18.2111 -18.1999
   -18.1977 -18.1924 -18.1530 -18.1501 -18.1396 -18.1345 -18.1241 -18.1222
    -9.3889  -9.3250  -9.2960  -9.2565  -9.2102  -9.1601  -9.0764  -9.0451
    -8.9657  -8.9366  -8.9114  -8.9022  -8.8679  -8.8371  -8.8142  -8.7909
    -8.7713  -8.7489  -8.7323  -8.7159  -8.6650  -8.6077  -8.6018  -8.5047
    -5.2923  -5.2861  -5.2777  -5.2494  -5.2240  -5.2147  -5.1756  -5.1678
    -5.1481  -5.1434  -5.1342  -5.1223  -5.1129  -5.0790  -5.0759  -5.0575
    -5.0463  -5.0411  -5.0082  -4.9937  -4.9894  -4.9624  -4.9385  -4.9170
    -4.0721  -3.9708  -3.8523  -3.7489  -3.7068  -3.5992  -3.4803  -3.3759
    -0.4008  -0.3442  -0.2912  -0.2689  -0.2441  -0.1735  -0.1406  -0.0845
    -0.0463   0.0215   0.1002   0.1813   0.2975   0.3483   0.3800   0.4254
     0.4695   0.5008   0.5431   0.5659   0.5892   0.6178   0.6434   0.6924
     0.8589   0.8869   0.9153   0.9542   1.0072   1.0302   1.0401   1.0754
     1.1002   1.1206   1.1669   1.1901   1.2013   1.2441   1.2607   1.3108
     1.3430   1.4073   1.4365   1.4654   1.5176   1.5526   1.5840   1.6212
     1.6478   1.7015   1.7067   1.7205   1.7354   1.7663   1.7911   1.8096
     1.8220   1.8351   1.8506   1.8665   1.8895   1.8983   1.9257   1.9346
     1.9764   2.0083   2.0451   2.0747   2.1165   2.1609   2.2055   2.2637

     highest occupied level (ev):     3.1148

!    total energy              =   -2256.31808922 Ry
     estimated scf accuracy    <          4.6E-11 Ry

     The total energy is the sum of the following terms:
     one-electron contribution =    -981.21397389 Ry
     hartree contribution      =     618.57582049 Ry
     xc contribution           =    -647.43635096 Ry
     ewald contribution        =   -1246.24358487 Ry

     convergence has been achieved in  15 iterations

     Forces acting on atoms (cartesian axes, Ry/au):

     atom    1 type  1   force =     0.00080435    0.00145254    0.00000760
     atom    2 type  2   force =     0.00266642    0.00676637   -0.00539551
     atom    3 type  3   force =    -0.00004173    0.00465526    0.00018201
     atom    4 type  3   force =     0.00178064    0.00473542   -0.00045240
     atom    5 type  3   force =     0.00313158    0.00041836    0.01300483
     atom    6 type  1   force =    -0.01306334   -0.01482665   -0.00215754
     atom    7 type  2   force =    -0.00456429   -0.00223355   -0.01791221
     atom    8 type  3   force =     0.00399200   -0.00089259   -0.00337371
     atom    9 type  3   force =     0.00057889   -0.00894972    0.01461325
     atom   10 type  3   force =     0.00124821    0.01391000   -0.00200447
     atom   11 type  1   force =    -0.00322004   -0.00334597    0.00069184
     atom   12 type  2   force =    -0.01110797   -0.01380821   -0.01179181
     atom   13 type  3   force =     0.01776722   -0.00260265    0.00624379
     atom   14 type  3   force =     0.00677894    0.00972557   -0.01288729
     atom   15 type  3   force =    -0.00248844    0.00180099    0.00373996
     atom   16 type  1   force =     0.00028569   -0.00011356    0.00081282
     atom   17 type  2   force =     0.00143579    0.00319824    0.01091951
     atom   18 type  3   force =     0.00343553   -0.00430682   -0.00048810
     atom   19 type  3   force =    -0.00210839   -0.00017797    0.01031776
     atom   20 type  3   force =    -0.00245166   -0.00667830    0.00051560
     atom   21 type  1   force =    -0.00386864   -0.00700469    0.00127635
     atom   22 type  2   force =    -0.00025888    0.00433473   -0.02160330
     atom   23 type  3   force =     0.00160758   -0.00038813    0.00035928
     atom   24 type  3   force =     0.00241467    0.00259838    0.01698064
     atom   25 type  3   force =    -0.00580911    0.00139868   -0.00339672
     atom   26 type  1   force =    -0.00319677   -0.00170795   -0.00342507
     atom   27 type  2   force =     0.00485004   -0.01630484    0.02065174
     atom   28 type  3   force =    -0.00551194   -0.00381193   -0.00473163
     atom   29 type  3   force =    -0.00098457   -0.00319610   -0.00019743
     atom   30 type  3   force =    -0.00068882    0.01438533   -0.00779799
     atom   31 type  1   force =    -0.00046966    0.00072482   -0.00103231
     atom   32 type  2   force =     0.00463130   -0.00216703    0.00518828
     atom   33 type  3   force =    -0.00880636    0.00039542    0.00000810
     atom   34 type  3   force =     0.00379415   -0.00177015   -0.00314819
     atom   35 type  3   force =    -0.00104350   -0.00275313    0.00034321
     atom   36 type  1   force =    -0.00112684    0.00066601   -0.00044856
     atom   37 type  2   force =    -0.00203714    0.01812124    0.00078868
     atom   38 type  3   force =    -0.00745546   -0.00131152   -0.00019303
     atom   39 type  3   force =     0.01706556    0.01167467   -0.00047537
     atom   40 type  3   force =     0.00203500   -0.00261058   -0.00373263

     Total force =     0.077905     Total SCF correction =     0.000033


     Computing stress (Cartesian axis) and pressure

          total   stress  (Ry/bohr**3)                   (kbar)     P=       -8.49
  -0.00005326   0.00000719   0.00000196           -7.83        1.06        0.29
   0.00000719  -0.00006166   0.00000103            1.06       -9.07        0.15
   0.00000196   0.00000103  -0.00005830            0.29        0.15       -8.58

 
     init_run     :     20.20s CPU     17.05s WALL (       1 calls)
     electrons    :    194.52s CPU    211.83s WALL (       1 calls)
     forces       :      8.74s CPU      3.99s WALL (       1 calls)
     stress       :     30.56s CPU     31.22s WALL (       1 calls)

     Called by init_run:
     wfcinit      :     12.22s CPU     13.98s WALL (       1 calls)
                                       13.98s GPU  (       1 calls)
     potinit      :      4.57s CPU      1.40s WALL (       1 calls)
     hinit0       :      2.82s CPU      1.00s WALL (       1 calls)

     Called by electrons:
     c_bands      :    114.32s CPU    169.41s WALL (      16 calls)
     sum_band     :     21.41s CPU     21.11s WALL (      16 calls)
                                       21.11s GPU  (      16 calls)
     v_of_rho     :     54.45s CPU     16.59s WALL (      16 calls)
     mix_rho      :      6.44s CPU      4.98s WALL (      16 calls)

     Called by c_bands:
     init_us_2    :      2.44s CPU      3.16s WALL (     280 calls)
                                        3.15s GPU  (     280 calls)
     cegterg      :     75.27s CPU    127.37s WALL (     128 calls)

     Called by *egterg:
     cdiaghg      :     13.71s CPU     25.42s WALL (     636 calls)
                                       25.38s GPU  (     636 calls)
     h_psi        :     49.98s CPU     73.23s WALL (     652 calls)
                                       72.79s GPU  (     652 calls)
     g_psi        :      0.00s CPU      0.36s WALL (     516 calls)
                                        0.35s GPU  (     516 calls)

     Called by h_psi:
     h_psi:calbec :      0.33s CPU      9.88s WALL (     652 calls)
                                        9.88s GPU  (     652 calls)
     vloc_psi     :     36.36s CPU     53.40s WALL (     652 calls)
                                       52.48s GPU  (     652 calls)
     add_vuspsi   :      0.32s CPU      9.86s WALL (     652 calls)
                                        9.85s GPU  (     652 calls)

     General routines
     calbec       :      0.33s CPU      0.39s WALL (     692 calls)
     fft          :     25.47s CPU      6.52s WALL (     185 calls)
                                        0.00s GPU  (       6 calls)
     ffts         :      2.63s CPU      0.67s WALL (      16 calls)
     fftw         :      0.58s CPU     61.96s WALL (   10370 calls)
                                       46.23s GPU  (   10370 calls)
 
     Parallel routines
 
     PWSCF        :   4m14.66s CPU   4m24.82s WALL

 
   This run was terminated on:  21:34: 8  22Apr2021            

=------------------------------------------------------------------------------=
   JOB DONE.
=------------------------------------------------------------------------------=
