
     Program PWSCF v.6.7MaX starts on 22Apr2021 at 21:19:52 

     This program is part of the open-source Quantum ESPRESSO suite
     for quantum simulation of materials; please cite
         "P. Giannozzi et al., J. Phys.:Condens. Matter 21 395502 (2009);
         "P. Giannozzi et al., J. Phys.:Condens. Matter 29 465901 (2017);
         "P. Giannozzi et al., J. Chem. Phys. 152 154105 (2020);
          URL http://www.quantum-espresso.org", 
     in publications or presentations arising from this work. More details at
     http://www.quantum-espresso.org/quote

     Parallel version (MPI & OpenMP), running on      16 processor cores
     Number of MPI processes:                 4
     Threads/MPI process:                     4

     MPI processes distributed on     1 nodes
     K-points division:     npool     =       4
     Reading input from ESP_13.pwi
Warning: card &CELL ignored
Warning: card / ignored

     Current dimensions of program PWSCF are:
     Max number of different atomic species (ntypx) = 10
     Max number of k-points (npk) =  40000
     Max angular momentum in pseudopotentials (lmaxx) =  3
     Message from routine read_pp_mesh:
     mesh size missing, using the one in header
     Message from routine read_pp_mesh:
     mesh size missing, using the one in header
     Message from routine read_pp_mesh:
     mesh size missing, using the one in header

     Subspace diagonalization in iterative solution of the eigenvalue problem:
     a serial algorithm will be used

 
     G-vector sticks info
     --------------------
     sticks:   dense  smooth     PW     G-vecs:    dense   smooth      PW
     Sum       12589   12589   3289              1061107  1061107  140905
 
     Using Slab Decomposition
 


     bravais-lattice index     =            0
     lattice parameter (alat)  =      23.7585  a.u.
     unit-cell volume          =   13410.8736 (a.u.)^3
     number of atoms/cell      =           40
     number of atomic types    =            3
     number of electrons       =       352.00
     number of Kohn-Sham states=          176
     kinetic-energy cutoff     =      70.0000  Ry
     charge density cutoff     =     280.0000  Ry
     scf convergence threshold =      1.0E-10
     mixing beta               =       0.7000
     number of iterations used =            8  plain     mixing
     Exchange-correlation= PBESOL
                           (   1   4  10   8   0   0   0)

     GPU acceleration is ACTIVE.


     celldm(1)=  23.758500  celldm(2)=   0.000000  celldm(3)=   0.000000
     celldm(4)=   0.000000  celldm(5)=   0.000000  celldm(6)=   0.000000

     crystal axes: (cart. coord. in units of alat)
               a(1) = (   1.000000   0.000000   0.000000 )  
               a(2) = (   0.000000   1.000000   0.000000 )  
               a(3) = (   0.000000   0.000000   1.000000 )  

     reciprocal axes: (cart. coord. in units 2 pi/alat)
               b(1) = (  1.000000  0.000000  0.000000 )  
               b(2) = (  0.000000  1.000000  0.000000 )  
               b(3) = (  0.000000  0.000000  1.000000 )  


     PseudoPot. # 1 for Cs read from file:
     /m100/home/userexternal/lmonacel/espresso/pseudo/Cs-nc-pbesol.upf
     MD5 check sum: 9d2f2206a14dc5b3b3f3fbfae186bed4
     Pseudo is Norm-conserving + core correction, Zval =  9.0
     Generated using ONCVPSP code by D. R. Hamann
     Using radial grid of 2384 points,  8 beta functions with: 
                l(1) =   0
                l(2) =   0
                l(3) =   1
                l(4) =   1
                l(5) =   2
                l(6) =   2
                l(7) =   3
                l(8) =   3

     PseudoPot. # 2 for Sn read from file:
     /m100/home/userexternal/lmonacel/espresso/pseudo/Sn-nc-pbesol.upf
     MD5 check sum: c2995d571af40102bfea7461443d92cf
     Pseudo is Norm-conserving + core correction, Zval = 14.0
     Generated using ONCVPSP code by D. R. Hamann
     Using radial grid of 1628 points,  6 beta functions with: 
                l(1) =   0
                l(2) =   0
                l(3) =   1
                l(4) =   1
                l(5) =   2
                l(6) =   2

     PseudoPot. # 3 for I  read from file:
     /m100/home/userexternal/lmonacel/espresso/pseudo/I-nc-pbesol.upf
     MD5 check sum: 80ed5ceb2eb9c553cfb6760a299d9c5b
     Pseudo is Norm-conserving + core correction, Zval =  7.0
     Generated using ONCVPSP code by D. R. Hamann
     Using radial grid of 1182 points,  6 beta functions with: 
                l(1) =   0
                l(2) =   0
                l(3) =   1
                l(4) =   1
                l(5) =   2
                l(6) =   2

     atomic species   valence    mass     pseudopotential
        Cs             9.00   132.90545     Cs( 1.00)
        Sn            14.00   118.71000     Sn( 1.00)
        I              7.00   126.90447     I ( 1.00)

     No symmetry found



   Cartesian axes

     site n.     atom                  positions (alat units)
         1           Cs  tau(   1) = (   0.2408775   0.2406052   0.2530136  )
         2           Sn  tau(   2) = (  -0.0176819   0.0130776  -0.0011504  )
         3           I   tau(   3) = (   0.2330508  -0.0251568  -0.0245065  )
         4           I   tau(   4) = (   0.0148374   0.0192615   0.2581865  )
         5           I   tau(   5) = (  -0.0052224   0.2403297  -0.0046379  )
         6           Cs  tau(   6) = (   0.2303055   0.2451191   0.7322600  )
         7           Sn  tau(   7) = (  -0.0008144  -0.0125648   0.5063228  )
         8           I   tau(   8) = (   0.2547798   0.0323422   0.4898397  )
         9           I   tau(   9) = (  -0.0339397  -0.0290592   0.7656789  )
        10           I   tau(  10) = (  -0.0179085   0.2591625   0.5090057  )
        11           Cs  tau(  11) = (   0.2454962   0.7731942   0.2455463  )
        12           Sn  tau(  12) = (   0.0165408   0.5199666   0.0053907  )
        13           I   tau(  13) = (   0.2504176   0.4898148   0.0289414  )
        14           I   tau(  14) = (  -0.0023445   0.4828343   0.2664333  )
        15           I   tau(  15) = (   0.0053587   0.7536221   0.0307143  )
        16           Cs  tau(  16) = (   0.2365567   0.8004863   0.7802505  )
        17           Sn  tau(  17) = (  -0.0016675   0.4945037   0.4847773  )
        18           I   tau(  18) = (   0.2541670   0.4833910   0.5015257  )
        19           I   tau(  19) = (   0.0151776   0.5332519   0.7599490  )
        20           I   tau(  20) = (   0.0101281   0.7350878   0.4505090  )
        21           Cs  tau(  21) = (   0.7410836   0.2461670   0.2941001  )
        22           Sn  tau(  22) = (   0.5042797   0.0011990  -0.0226954  )
        23           I   tau(  23) = (   0.7539604   0.0039713  -0.0072703  )
        24           I   tau(  24) = (   0.4714030   0.0051710   0.2335803  )
        25           I   tau(  25) = (   0.4998254   0.2356976  -0.0357764  )
        26           Cs  tau(  26) = (   0.7739215   0.2780248   0.7853115  )
        27           Sn  tau(  27) = (   0.5199209  -0.0016542   0.4767219  )
        28           I   tau(  28) = (   0.7540177  -0.0154105   0.5085781  )
        29           I   tau(  29) = (   0.5247745   0.0018353   0.7189654  )
        30           I   tau(  30) = (   0.5149916   0.2581657   0.5045520  )
        31           Cs  tau(  31) = (   0.7523409   0.7327431   0.2583884  )
        32           Sn  tau(  32) = (   0.5039532   0.5090322   0.0042688  )
        33           I   tau(  33) = (   0.7527396   0.5032752  -0.0062594  )
        34           I   tau(  34) = (   0.5297719   0.5021480   0.2502967  )
        35           I   tau(  35) = (   0.5115523   0.7406697   0.0057605  )
        36           Cs  tau(  36) = (   0.7400812   0.6992609   0.7693549  )
        37           Sn  tau(  37) = (   0.5165460   0.4941888   0.4990941  )
        38           I   tau(  38) = (   0.7571611   0.5240183   0.4894152  )
        39           I   tau(  39) = (   0.4777953   0.4779639   0.7508313  )
        40           I   tau(  40) = (   0.4762780   0.7546719   0.4760896  )

     number of k points=    32
                       cart. coord. in units 2pi/alat
        k(    1) = (   0.1250000   0.1250000   0.1250000), wk =   0.0625000
        k(    2) = (   0.1250000   0.1250000   0.3750000), wk =   0.0625000
        k(    3) = (   0.1250000   0.3750000   0.3750000), wk =   0.0625000
        k(    4) = (   0.3750000   0.3750000   0.3750000), wk =   0.0625000
        k(    5) = (  -0.1250000  -0.1250000   0.1250000), wk =   0.0625000
        k(    6) = (  -0.1250000   0.1250000  -0.1250000), wk =   0.0625000
        k(    7) = (   0.1250000  -0.1250000  -0.1250000), wk =   0.0625000
        k(    8) = (  -0.1250000  -0.1250000   0.3750000), wk =   0.0625000
        k(    9) = (  -0.1250000   0.1250000  -0.3750000), wk =   0.0625000
        k(   10) = (   0.1250000  -0.1250000  -0.3750000), wk =   0.0625000
        k(   11) = (   0.3750000  -0.1250000   0.1250000), wk =   0.0625000
        k(   12) = (  -0.3750000  -0.1250000  -0.1250000), wk =   0.0625000
        k(   13) = (   0.3750000   0.1250000  -0.1250000), wk =   0.0625000
        k(   14) = (  -0.3750000   0.1250000   0.1250000), wk =   0.0625000
        k(   15) = (  -0.1250000   0.3750000   0.1250000), wk =   0.0625000
        k(   16) = (  -0.1250000  -0.3750000  -0.1250000), wk =   0.0625000
        k(   17) = (   0.1250000   0.3750000  -0.1250000), wk =   0.0625000
        k(   18) = (   0.1250000  -0.3750000   0.1250000), wk =   0.0625000
        k(   19) = (  -0.1250000  -0.3750000   0.3750000), wk =   0.0625000
        k(   20) = (  -0.1250000   0.3750000  -0.3750000), wk =   0.0625000
        k(   21) = (   0.1250000  -0.3750000  -0.3750000), wk =   0.0625000
        k(   22) = (   0.3750000   0.1250000  -0.3750000), wk =   0.0625000
        k(   23) = (  -0.3750000  -0.1250000  -0.3750000), wk =   0.0625000
        k(   24) = (   0.3750000  -0.1250000   0.3750000), wk =   0.0625000
        k(   25) = (  -0.3750000   0.1250000   0.3750000), wk =   0.0625000
        k(   26) = (   0.3750000  -0.3750000   0.1250000), wk =   0.0625000
        k(   27) = (  -0.3750000  -0.3750000  -0.1250000), wk =   0.0625000
        k(   28) = (   0.3750000   0.3750000  -0.1250000), wk =   0.0625000
        k(   29) = (  -0.3750000   0.3750000   0.1250000), wk =   0.0625000
        k(   30) = (  -0.3750000  -0.3750000   0.3750000), wk =   0.0625000
        k(   31) = (  -0.3750000   0.3750000  -0.3750000), wk =   0.0625000
        k(   32) = (   0.3750000  -0.3750000  -0.3750000), wk =   0.0625000

     Dense  grid:  1061107 G-vectors     FFT dimensions: ( 128, 128, 128)

     Estimated max dynamical RAM per process >       6.82 GB

     Estimated total dynamical RAM >      27.27 GB

     Initial potential from superposition of free atoms

     starting charge  351.69472, renormalised to  352.00000
     Starting wfcs are  208 randomized atomic wfcs

     total cpu time spent up to now is       17.6 secs

     Self-consistent Calculation

     iteration #  1     ecut=    70.00 Ry     beta= 0.70
     Davidson diagonalization with overlap
     ethr =  1.00E-02,  avg # of iterations =  2.0

     Threshold (ethr) on eigenvalues was too large:
     Diagonalizing with lowered threshold

     Davidson diagonalization with overlap
     ethr =  2.16E-04,  avg # of iterations =  4.0

     total cpu time spent up to now is       38.5 secs

     total energy              =   -2256.00274355 Ry
     estimated scf accuracy    <       0.65619181 Ry

     iteration #  2     ecut=    70.00 Ry     beta= 0.70
     Davidson diagonalization with overlap
     ethr =  1.86E-04,  avg # of iterations =  3.3

     total cpu time spent up to now is       51.3 secs

     total energy              =   -2256.18833044 Ry
     estimated scf accuracy    <       0.35712180 Ry

     iteration #  3     ecut=    70.00 Ry     beta= 0.70
     Davidson diagonalization with overlap
     ethr =  1.01E-04,  avg # of iterations =  3.0

     total cpu time spent up to now is       63.1 secs

     total energy              =   -2256.26061764 Ry
     estimated scf accuracy    <       0.04372331 Ry

     iteration #  4     ecut=    70.00 Ry     beta= 0.70
     Davidson diagonalization with overlap
     ethr =  1.24E-05,  avg # of iterations =  3.3

     total cpu time spent up to now is       75.2 secs

     total energy              =   -2256.27263874 Ry
     estimated scf accuracy    <       0.00327564 Ry

     iteration #  5     ecut=    70.00 Ry     beta= 0.70
     Davidson diagonalization with overlap
     ethr =  9.31E-07,  avg # of iterations =  4.2

     total cpu time spent up to now is       88.7 secs

     total energy              =   -2256.27329191 Ry
     estimated scf accuracy    <       0.00142324 Ry

     iteration #  6     ecut=    70.00 Ry     beta= 0.70
     Davidson diagonalization with overlap
     ethr =  4.04E-07,  avg # of iterations =  3.2

     total cpu time spent up to now is      100.7 secs

     total energy              =   -2256.27357623 Ry
     estimated scf accuracy    <       0.00020342 Ry

     iteration #  7     ecut=    70.00 Ry     beta= 0.70
     Davidson diagonalization with overlap
     ethr =  5.78E-08,  avg # of iterations =  4.0

     total cpu time spent up to now is      113.1 secs

     total energy              =   -2256.27361749 Ry
     estimated scf accuracy    <       0.00002718 Ry

     iteration #  8     ecut=    70.00 Ry     beta= 0.70
     Davidson diagonalization with overlap
     ethr =  7.72E-09,  avg # of iterations =  5.2

     total cpu time spent up to now is      128.0 secs

     total energy              =   -2256.27362957 Ry
     estimated scf accuracy    <       0.00000692 Ry

     iteration #  9     ecut=    70.00 Ry     beta= 0.70
     Davidson diagonalization with overlap
     ethr =  1.97E-09,  avg # of iterations =  4.0

     total cpu time spent up to now is      141.4 secs

     total energy              =   -2256.27363164 Ry
     estimated scf accuracy    <       0.00000155 Ry

     iteration # 10     ecut=    70.00 Ry     beta= 0.70
     Davidson diagonalization with overlap
     ethr =  4.41E-10,  avg # of iterations =  3.9

     total cpu time spent up to now is      154.3 secs

     total energy              =   -2256.27363208 Ry
     estimated scf accuracy    <       0.00000028 Ry

     iteration # 11     ecut=    70.00 Ry     beta= 0.70
     Davidson diagonalization with overlap
     ethr =  7.86E-11,  avg # of iterations =  3.1

     total cpu time spent up to now is      167.8 secs

     total energy              =   -2256.27363216 Ry
     estimated scf accuracy    <       0.00000006 Ry

     iteration # 12     ecut=    70.00 Ry     beta= 0.70
     Davidson diagonalization with overlap
     ethr =  1.84E-11,  avg # of iterations =  5.1

     total cpu time spent up to now is      182.7 secs

     total energy              =   -2256.27363219 Ry
     estimated scf accuracy    <       0.00000001 Ry

     iteration # 13     ecut=    70.00 Ry     beta= 0.70
     Davidson diagonalization with overlap
     ethr =  3.97E-12,  avg # of iterations =  5.1

     total cpu time spent up to now is      197.8 secs

     total energy              =   -2256.27363220 Ry
     estimated scf accuracy    <          2.6E-09 Ry

     iteration # 14     ecut=    70.00 Ry     beta= 0.70
     Davidson diagonalization with overlap
     ethr =  7.40E-13,  avg # of iterations =  5.6

     total cpu time spent up to now is      213.4 secs

     total energy              =   -2256.27363220 Ry
     estimated scf accuracy    <          3.3E-10 Ry

     iteration # 15     ecut=    70.00 Ry     beta= 0.70
     Davidson diagonalization with overlap
     ethr =  1.00E-13,  avg # of iterations =  5.2

     total cpu time spent up to now is      229.3 secs

     total energy              =   -2256.27363220 Ry
     estimated scf accuracy    <          2.3E-10 Ry

     iteration # 16     ecut=    70.00 Ry     beta= 0.70
     Davidson diagonalization with overlap
     ethr =  1.00E-13,  avg # of iterations =  2.9

     total cpu time spent up to now is      240.7 secs

     End of self-consistent calculation

          k = 0.1250 0.1250 0.1250 (132670 PWs)   bands (ev):

   -18.4956 -18.4327 -18.3972 -18.3888 -18.3881 -18.3868 -18.3849 -18.3799
   -18.3733 -18.3675 -18.3168 -18.3086 -18.2993 -18.2933 -18.2895 -18.2842
   -18.2778 -18.2624 -18.2559 -18.2531 -18.2447 -18.2420 -18.2418 -18.2382
   -18.2355 -18.2305 -18.2242 -18.2129 -18.1915 -18.1761 -18.1747 -18.1691
   -18.1569 -18.1555 -18.1483 -18.1467 -18.1464 -18.1359 -18.1331 -18.1248
   -18.1236 -18.1191 -18.1168 -18.0640 -18.0423 -18.0195 -18.0190 -18.0161
    -9.5610  -9.4704  -9.3190  -9.2962  -9.2294  -9.1561  -9.1007  -9.0633
    -9.0090  -8.9719  -8.9590  -8.9340  -8.9204  -8.8736  -8.8539  -8.8346
    -8.7761  -8.7511  -8.7133  -8.6893  -8.6500  -8.5525  -8.5425  -8.3299
    -5.2757  -5.2687  -5.2495  -5.2227  -5.2145  -5.1992  -5.1793  -5.1758
    -5.1716  -5.1630  -5.1562  -5.1501  -5.1472  -5.1447  -5.1365  -5.0930
    -5.0798  -5.0675  -5.0602  -5.0529  -5.0490  -4.9967  -4.9899  -4.9769
    -4.4729  -3.9883  -3.9462  -3.8952  -3.4357  -3.3501  -3.3354  -2.7478
    -0.7967  -0.7046  -0.6702  -0.6447  -0.6164  -0.5859  -0.5382  -0.4692
    -0.4394  -0.3824  -0.2828  -0.1630   0.4029   0.4433   0.4806   0.5534
     0.6138   0.6810   0.7196   0.7535   0.7722   0.8596   0.9275   0.9505
     1.0007   1.0111   1.0436   1.0822   1.1000   1.1220   1.1774   1.1958
     1.2139   1.2449   1.2617   1.2795   1.3075   1.3444   1.3727   1.3746
     1.3944   1.4241   1.4406   1.4629   1.4789   1.5087   1.5222   1.5436
     1.5660   1.5796   1.6198   1.6316   1.6589   1.6913   1.7293   1.7397
     1.7709   1.8191   1.8653   1.9298   1.9742   2.0574   2.0991   2.1431
     2.1901   2.1995   2.2606   2.3145   2.6155   2.7543   2.8603   3.1888

          k = 0.1250 0.1250 0.3750 (132608 PWs)   bands (ev):

   -18.4956 -18.4327 -18.3972 -18.3888 -18.3881 -18.3868 -18.3849 -18.3799
   -18.3733 -18.3675 -18.3168 -18.3086 -18.2993 -18.2933 -18.2895 -18.2842
   -18.2778 -18.2624 -18.2559 -18.2531 -18.2447 -18.2420 -18.2418 -18.2382
   -18.2355 -18.2305 -18.2242 -18.2129 -18.1915 -18.1761 -18.1747 -18.1691
   -18.1569 -18.1555 -18.1483 -18.1467 -18.1464 -18.1359 -18.1331 -18.1248
   -18.1236 -18.1191 -18.1168 -18.0640 -18.0423 -18.0195 -18.0190 -18.0161
    -9.5534  -9.4747  -9.3164  -9.2933  -9.2436  -9.1590  -9.1008  -9.0555
    -9.0136  -8.9857  -8.9583  -8.9336  -8.9241  -8.8748  -8.8434  -8.8257
    -8.7698  -8.7462  -8.7124  -8.6918  -8.6419  -8.5643  -8.5447  -8.3303
    -5.2756  -5.2681  -5.2493  -5.2229  -5.2150  -5.1990  -5.1796  -5.1770
    -5.1690  -5.1629  -5.1572  -5.1502  -5.1470  -5.1447  -5.1363  -5.0928
    -5.0797  -5.0676  -5.0593  -5.0544  -5.0492  -4.9967  -4.9901  -4.9770
    -4.3523  -4.1309  -3.8507  -3.7759  -3.6023  -3.5161  -3.2117  -2.9578
    -0.7818  -0.6616  -0.6404  -0.5988  -0.5783  -0.5297  -0.4884  -0.3642
    -0.1491  -0.1272  -0.0131   0.0933   0.3905   0.4304   0.4465   0.5131
     0.5413   0.5873   0.6142   0.6402   0.6743   0.7162   0.7870   0.8111
     0.8887   0.9321   0.9915   1.0134   1.0650   1.0839   1.1244   1.1594
     1.2075   1.2351   1.2698   1.2811   1.3272   1.3528   1.3600   1.3789
     1.4059   1.4398   1.4590   1.4853   1.5087   1.5200   1.5375   1.5551
     1.5829   1.6033   1.6384   1.6540   1.6658   1.7097   1.7444   1.7677
     1.7986   1.8322   1.8687   1.9077   1.9369   1.9460   2.0365   2.0573
     2.1391   2.1835   2.2082   2.2639   2.4110   2.5125   2.8040   2.9445

          k = 0.1250 0.3750 0.3750 (132616 PWs)   bands (ev):

   -18.4956 -18.4327 -18.3972 -18.3888 -18.3881 -18.3868 -18.3849 -18.3799
   -18.3733 -18.3675 -18.3168 -18.3086 -18.2993 -18.2932 -18.2895 -18.2842
   -18.2778 -18.2624 -18.2559 -18.2531 -18.2447 -18.2420 -18.2418 -18.2382
   -18.2355 -18.2305 -18.2242 -18.2129 -18.1915 -18.1761 -18.1747 -18.1691
   -18.1569 -18.1555 -18.1483 -18.1467 -18.1464 -18.1359 -18.1331 -18.1248
   -18.1236 -18.1191 -18.1168 -18.0640 -18.0423 -18.0195 -18.0190 -18.0161
    -9.5473  -9.4693  -9.3222  -9.3005  -9.2531  -9.1635  -9.1014  -9.0471
    -9.0146  -8.9897  -8.9644  -8.9311  -8.9205  -8.8582  -8.8428  -8.8151
    -8.7828  -8.7434  -8.7145  -8.7036  -8.6195  -8.5734  -8.5482  -8.3313
    -5.2756  -5.2682  -5.2494  -5.2245  -5.2145  -5.1985  -5.1802  -5.1756
    -5.1691  -5.1626  -5.1568  -5.1503  -5.1473  -5.1446  -5.1363  -5.0931
    -5.0799  -5.0679  -5.0595  -5.0538  -5.0487  -4.9967  -4.9903  -4.9771
    -4.2347  -4.0493  -3.9696  -3.7720  -3.6514  -3.4123  -3.3798  -3.1509
    -0.7147  -0.6432  -0.5759  -0.5474  -0.4031  -0.3076  -0.2105  -0.1640
    -0.0678  -0.0389   0.0755   0.1412   0.2829   0.4041   0.4465   0.4833
     0.5090   0.5419   0.5706   0.5910   0.6055   0.6650   0.6827   0.7497
     0.7996   0.8530   0.9193   0.9520   0.9802   1.0371   1.0653   1.0882
     1.1556   1.1734   1.2388   1.2501   1.2966   1.3137   1.3571   1.3869
     1.4161   1.4416   1.4726   1.4918   1.5125   1.5382   1.5630   1.5808
     1.5938   1.6178   1.6524   1.6675   1.6918   1.7224   1.7585   1.7846
     1.8037   1.8327   1.8440   1.8610   1.9117   1.9631   2.0006   2.0367
     2.0748   2.0993   2.1669   2.2060   2.3562   2.4119   2.5618   2.7115

          k = 0.3750 0.3750 0.3750 (132612 PWs)   bands (ev):

   -18.4956 -18.4327 -18.3972 -18.3888 -18.3881 -18.3868 -18.3849 -18.3799
   -18.3733 -18.3675 -18.3168 -18.3086 -18.2993 -18.2932 -18.2895 -18.2842
   -18.2778 -18.2623 -18.2559 -18.2532 -18.2447 -18.2420 -18.2418 -18.2382
   -18.2355 -18.2305 -18.2242 -18.2129 -18.1915 -18.1761 -18.1747 -18.1691
   -18.1569 -18.1555 -18.1483 -18.1467 -18.1464 -18.1359 -18.1331 -18.1248
   -18.1236 -18.1191 -18.1168 -18.0640 -18.0423 -18.0195 -18.0190 -18.0161
    -9.5437  -9.4639  -9.3240  -9.2983  -9.2533  -9.1797  -9.1259  -9.0497
    -9.0181  -8.9718  -8.9527  -8.9334  -8.9082  -8.8578  -8.8375  -8.8101
    -8.7916  -8.7428  -8.7178  -8.7009  -8.6186  -8.5741  -8.5510  -8.3322
    -5.2755  -5.2684  -5.2492  -5.2246  -5.2146  -5.1986  -5.1800  -5.1758
    -5.1692  -5.1646  -5.1568  -5.1482  -5.1469  -5.1446  -5.1365  -5.0932
    -5.0800  -5.0675  -5.0593  -5.0537  -5.0489  -4.9968  -4.9899  -4.9772
    -4.1279  -3.9712  -3.8837  -3.8198  -3.6358  -3.5630  -3.5223  -3.3147
    -0.5132  -0.4216  -0.3796  -0.3416  -0.2691  -0.2515  -0.1629  -0.1327
    -0.0760   0.0049   0.1061   0.2055   0.2823   0.3423   0.3915   0.4239
     0.4546   0.4751   0.5372   0.5526   0.6020   0.6443   0.6679   0.7531
     0.8113   0.8501   0.8755   0.9447   0.9635   0.9751   0.9965   1.0552
     1.0843   1.1252   1.1374   1.1796   1.2020   1.2364   1.2569   1.3322
     1.4126   1.4318   1.4841   1.5141   1.5582   1.5827   1.6089   1.6249
     1.6376   1.6574   1.6915   1.7154   1.7316   1.7400   1.7639   1.7931
     1.8069   1.8240   1.8508   1.8859   1.8997   1.9279   1.9707   2.0018
     2.0077   2.0558   2.0989   2.1214   2.1759   2.2391   2.2697   2.3934

          k =-0.1250-0.1250 0.1250 (132670 PWs)   bands (ev):

   -18.4956 -18.4327 -18.3972 -18.3888 -18.3881 -18.3868 -18.3849 -18.3799
   -18.3733 -18.3675 -18.3168 -18.3086 -18.2993 -18.2933 -18.2895 -18.2842
   -18.2778 -18.2624 -18.2559 -18.2531 -18.2447 -18.2420 -18.2418 -18.2382
   -18.2355 -18.2305 -18.2242 -18.2129 -18.1915 -18.1761 -18.1747 -18.1691
   -18.1569 -18.1555 -18.1483 -18.1467 -18.1464 -18.1359 -18.1331 -18.1248
   -18.1236 -18.1191 -18.1168 -18.0640 -18.0423 -18.0195 -18.0190 -18.0161
    -9.5608  -9.4707  -9.3183  -9.2978  -9.2262  -9.1599  -9.1008  -9.0588
    -9.0111  -8.9752  -8.9573  -8.9324  -8.9203  -8.8742  -8.8481  -8.8430
    -8.7775  -8.7440  -8.7151  -8.6905  -8.6500  -8.5532  -8.5420  -8.3298
    -5.2757  -5.2686  -5.2495  -5.2225  -5.2147  -5.1992  -5.1788  -5.1770
    -5.1714  -5.1630  -5.1558  -5.1501  -5.1471  -5.1448  -5.1365  -5.0931
    -5.0795  -5.0675  -5.0599  -5.0533  -5.0491  -4.9966  -4.9899  -4.9769
    -4.4720  -4.0079  -3.9332  -3.8865  -3.4351  -3.3859  -3.3015  -2.7498
    -0.7751  -0.7168  -0.6859  -0.6395  -0.6132  -0.5872  -0.5248  -0.5018
    -0.4423  -0.3456  -0.3044  -0.1610   0.4065   0.4404   0.4853   0.5545
     0.6049   0.6939   0.7156   0.7600   0.7860   0.8585   0.9224   0.9304
     0.9785   1.0251   1.0527   1.0873   1.0985   1.1439   1.1802   1.1897
     1.2219   1.2431   1.2605   1.2722   1.3097   1.3333   1.3497   1.3703
     1.4122   1.4375   1.4522   1.4711   1.4817   1.4954   1.5113   1.5356
     1.5651   1.5839   1.6005   1.6371   1.6637   1.6908   1.7183   1.7382
     1.7784   1.8122   1.8592   1.9369   1.9722   2.0549   2.1066   2.1545
     2.1724   2.2126   2.2631   2.3033   2.6455   2.7562   2.8487   3.1801

          k =-0.1250 0.1250-0.1250 (132670 PWs)   bands (ev):

   -18.4956 -18.4327 -18.3972 -18.3888 -18.3881 -18.3868 -18.3849 -18.3799
   -18.3733 -18.3675 -18.3168 -18.3086 -18.2993 -18.2933 -18.2895 -18.2842
   -18.2778 -18.2624 -18.2559 -18.2531 -18.2447 -18.2420 -18.2418 -18.2382
   -18.2355 -18.2305 -18.2242 -18.2129 -18.1915 -18.1761 -18.1747 -18.1691
   -18.1569 -18.1555 -18.1483 -18.1467 -18.1464 -18.1359 -18.1331 -18.1248
   -18.1236 -18.1191 -18.1168 -18.0640 -18.0423 -18.0195 -18.0190 -18.0161
    -9.5611  -9.4706  -9.3168  -9.2958  -9.2309  -9.1618  -9.1037  -9.0457
    -9.0179  -8.9744  -8.9559  -8.9332  -8.9218  -8.8744  -8.8508  -8.8406
    -8.7748  -8.7493  -8.7133  -8.6900  -8.6491  -8.5534  -8.5423  -8.3298
    -5.2757  -5.2686  -5.2495  -5.2226  -5.2147  -5.1992  -5.1787  -5.1770
    -5.1714  -5.1630  -5.1558  -5.1499  -5.1473  -5.1448  -5.1365  -5.0932
    -5.0797  -5.0676  -5.0598  -5.0533  -5.0491  -4.9966  -4.9899  -4.9770
    -4.4726  -4.0056  -3.9350  -3.8847  -3.4455  -3.3745  -3.3049  -2.7491
    -0.7752  -0.7166  -0.6907  -0.6539  -0.6159  -0.5604  -0.5297  -0.4847
    -0.4322  -0.3837  -0.2888  -0.1658   0.4031   0.4409   0.4843   0.5541
     0.6082   0.6890   0.7229   0.7594   0.7784   0.8557   0.9234   0.9614
     0.9733   1.0285   1.0463   1.0797   1.0967   1.1265   1.1540   1.1925
     1.2157   1.2450   1.2646   1.2850   1.3110   1.3471   1.3637   1.3919
     1.4088   1.4209   1.4312   1.4570   1.4820   1.5024   1.5288   1.5395
     1.5566   1.6066   1.6161   1.6313   1.6660   1.6864   1.7038   1.7415
     1.7744   1.8216   1.8523   1.9315   1.9770   2.0543   2.1037   2.1603
     2.1759   2.2069   2.2523   2.3115   2.6451   2.7422   2.8553   3.1727

          k = 0.1250-0.1250-0.1250 (132670 PWs)   bands (ev):

   -18.4956 -18.4327 -18.3972 -18.3888 -18.3881 -18.3868 -18.3849 -18.3799
   -18.3733 -18.3675 -18.3168 -18.3086 -18.2993 -18.2933 -18.2895 -18.2842
   -18.2778 -18.2624 -18.2559 -18.2531 -18.2447 -18.2420 -18.2418 -18.2382
   -18.2355 -18.2305 -18.2242 -18.2129 -18.1915 -18.1761 -18.1747 -18.1691
   -18.1569 -18.1555 -18.1483 -18.1467 -18.1464 -18.1359 -18.1331 -18.1248
   -18.1236 -18.1191 -18.1168 -18.0640 -18.0423 -18.0195 -18.0190 -18.0161
    -9.5609  -9.4708  -9.3156  -9.2988  -9.2289  -9.1594  -9.1037  -9.0473
    -9.0202  -8.9690  -8.9639  -8.9324  -8.9212  -8.8699  -8.8547  -8.8384
    -8.7728  -8.7470  -8.7176  -8.6905  -8.6495  -8.5523  -8.5425  -8.3298
    -5.2758  -5.2686  -5.2495  -5.2228  -5.2145  -5.1992  -5.1793  -5.1758
    -5.1716  -5.1631  -5.1563  -5.1499  -5.1472  -5.1448  -5.1365  -5.0930
    -5.0798  -5.0675  -5.0602  -5.0529  -5.0490  -4.9967  -4.9899  -4.9769
    -4.4729  -3.9919  -3.9520  -3.8840  -3.4405  -3.3538  -3.3279  -2.7493
    -0.7623  -0.7322  -0.6840  -0.6530  -0.6092  -0.5755  -0.5464  -0.4567
    -0.4362  -0.3644  -0.3076  -0.1714   0.4027   0.4456   0.4785   0.5439
     0.6166   0.6880   0.7206   0.7498   0.7716   0.8869   0.9123   0.9693
     0.9818   1.0089   1.0330   1.0952   1.1082   1.1514   1.1703   1.1878
     1.2079   1.2252   1.2569   1.2789   1.3131   1.3388   1.3650   1.3795
     1.4117   1.4256   1.4452   1.4606   1.4805   1.4917   1.5280   1.5580
     1.5706   1.5895   1.6077   1.6197   1.6687   1.6925   1.7200   1.7381
     1.7703   1.8120   1.8512   1.9246   1.9746   2.0482   2.1094   2.1522
     2.1884   2.2034   2.2573   2.3161   2.6398   2.7548   2.8547   3.1715

          k =-0.1250-0.1250 0.3750 (132608 PWs)   bands (ev):

   -18.4956 -18.4327 -18.3972 -18.3888 -18.3881 -18.3868 -18.3849 -18.3799
   -18.3733 -18.3675 -18.3168 -18.3086 -18.2993 -18.2933 -18.2895 -18.2842
   -18.2778 -18.2624 -18.2559 -18.2531 -18.2447 -18.2420 -18.2418 -18.2382
   -18.2355 -18.2305 -18.2242 -18.2129 -18.1915 -18.1761 -18.1747 -18.1691
   -18.1569 -18.1555 -18.1483 -18.1467 -18.1464 -18.1359 -18.1331 -18.1248
   -18.1236 -18.1191 -18.1168 -18.0640 -18.0423 -18.0195 -18.0190 -18.0161
    -9.5532  -9.4751  -9.3141  -9.2977  -9.2391  -9.1628  -9.1009  -9.0499
    -9.0179  -8.9865  -8.9575  -8.9321  -8.9242  -8.8760  -8.8434  -8.8276
    -8.7718  -8.7375  -8.7163  -8.6927  -8.6415  -8.5652  -8.5443  -8.3302
    -5.2755  -5.2681  -5.2493  -5.2227  -5.2153  -5.1990  -5.1792  -5.1779
    -5.1691  -5.1629  -5.1567  -5.1501  -5.1469  -5.1448  -5.1363  -5.0930
    -5.0794  -5.0676  -5.0589  -5.0549  -5.0493  -4.9966  -4.9901  -4.9770
    -4.3488  -4.1409  -3.8333  -3.7844  -3.5873  -3.5404  -3.1992  -2.9633
    -0.7716  -0.6659  -0.6490  -0.5868  -0.5805  -0.5373  -0.4854  -0.3665
    -0.1632  -0.1298  -0.0067   0.0952   0.3957   0.4269   0.4712   0.5108
     0.5362   0.5683   0.6226   0.6342   0.7047   0.7133   0.7823   0.8160
     0.8802   0.9090   0.9983   1.0239   1.0690   1.0861   1.1265   1.1658
     1.2111   1.2206   1.2570   1.2897   1.3180   1.3457   1.3551   1.3847
     1.4190   1.4543   1.4636   1.4843   1.5117   1.5232   1.5348   1.5595
     1.5801   1.5922   1.6006   1.6426   1.6939   1.7038   1.7466   1.7597
     1.7990   1.8316   1.8688   1.8862   1.9199   1.9610   2.0471   2.0874
     2.1360   2.1786   2.2205   2.2590   2.4039   2.5250   2.8079   2.9354

          k =-0.1250 0.1250-0.3750 (132608 PWs)   bands (ev):

   -18.4956 -18.4327 -18.3972 -18.3888 -18.3881 -18.3868 -18.3849 -18.3799
   -18.3733 -18.3675 -18.3168 -18.3086 -18.2993 -18.2933 -18.2895 -18.2842
   -18.2778 -18.2624 -18.2559 -18.2531 -18.2447 -18.2420 -18.2418 -18.2382
   -18.2355 -18.2305 -18.2242 -18.2129 -18.1915 -18.1761 -18.1747 -18.1691
   -18.1569 -18.1555 -18.1483 -18.1467 -18.1464 -18.1359 -18.1331 -18.1248
   -18.1236 -18.1191 -18.1168 -18.0640 -18.0423 -18.0195 -18.0190 -18.0161
    -9.5535  -9.4750  -9.3130  -9.2935  -9.2452  -9.1656  -9.1039  -9.0388
    -9.0158  -8.9843  -8.9625  -8.9413  -8.9214  -8.8708  -8.8478  -8.8256
    -8.7697  -8.7434  -8.7142  -8.6908  -8.6414  -8.5653  -8.5445  -8.3302
    -5.2755  -5.2681  -5.2493  -5.2228  -5.2153  -5.1991  -5.1792  -5.1778
    -5.1691  -5.1629  -5.1566  -5.1500  -5.1471  -5.1448  -5.1363  -5.0930
    -5.0795  -5.0677  -5.0587  -5.0550  -5.0492  -4.9966  -4.9901  -4.9771
    -4.3505  -4.1380  -3.8392  -3.7717  -3.6107  -3.5239  -3.2024  -2.9612
    -0.7631  -0.6831  -0.6529  -0.6007  -0.5598  -0.5344  -0.4752  -0.3718
    -0.1594  -0.1366  -0.0024   0.0934   0.3975   0.4289   0.4764   0.5088
     0.5301   0.5848   0.6056   0.6365   0.6943   0.7052   0.7815   0.8274
     0.8689   0.9305   0.9995   1.0082   1.0672   1.0755   1.1029   1.1731
     1.2127   1.2311   1.2545   1.2967   1.3221   1.3456   1.3804   1.3997
     1.4165   1.4422   1.4645   1.4866   1.5000   1.5268   1.5358   1.5506
     1.5869   1.5980   1.6200   1.6361   1.6753   1.7010   1.7369   1.7624
     1.8059   1.8309   1.8856   1.8979   1.9166   1.9674   2.0327   2.0891
     2.1314   2.1623   2.2163   2.2678   2.4068   2.5224   2.7992   2.9324

          k = 0.1250-0.1250-0.3750 (132608 PWs)   bands (ev):

   -18.4956 -18.4327 -18.3972 -18.3888 -18.3881 -18.3868 -18.3849 -18.3799
   -18.3733 -18.3675 -18.3168 -18.3086 -18.2993 -18.2933 -18.2895 -18.2842
   -18.2778 -18.2624 -18.2559 -18.2531 -18.2447 -18.2420 -18.2418 -18.2382
   -18.2355 -18.2305 -18.2242 -18.2129 -18.1915 -18.1761 -18.1747 -18.1691
   -18.1569 -18.1555 -18.1483 -18.1467 -18.1464 -18.1359 -18.1331 -18.1248
   -18.1236 -18.1191 -18.1168 -18.0640 -18.0423 -18.0195 -18.0190 -18.0161
    -9.5533  -9.4753  -9.3099  -9.2993  -9.2423  -9.1634  -9.1040  -9.0393
    -9.0202  -8.9822  -8.9648  -8.9394  -8.9229  -8.8680  -8.8488  -8.8247
    -8.7684  -8.7404  -8.7170  -8.6931  -8.6418  -8.5643  -8.5445  -8.3302
    -5.2756  -5.2681  -5.2493  -5.2231  -5.2150  -5.1991  -5.1796  -5.1770
    -5.1690  -5.1629  -5.1571  -5.1500  -5.1470  -5.1448  -5.1363  -5.0928
    -5.0797  -5.0676  -5.0595  -5.0543  -5.0492  -4.9967  -4.9901  -4.9770
    -4.3515  -4.1347  -3.8425  -3.7798  -3.5994  -3.5221  -3.2075  -2.9607
    -0.7579  -0.6871  -0.6547  -0.5951  -0.5631  -0.5262  -0.4895  -0.3646
    -0.1551  -0.1245  -0.0214   0.0938   0.3860   0.4225   0.4546   0.5122
     0.5405   0.5811   0.6231   0.6429   0.6907   0.7222   0.7899   0.8026
     0.8829   0.9372   0.9829   1.0198   1.0486   1.0819   1.1350   1.1764
     1.2065   1.2183   1.2472   1.2938   1.3313   1.3418   1.3796   1.3904
     1.4107   1.4453   1.4530   1.4902   1.4985   1.5186   1.5396   1.5679
     1.5837   1.6083   1.6289   1.6459   1.6711   1.7131   1.7289   1.7654
     1.7931   1.8367   1.8506   1.8849   1.9307   1.9642   2.0417   2.0614
     2.1453   2.1803   2.2254   2.2706   2.3940   2.5311   2.8041   2.9280

          k = 0.3750-0.1250 0.1250 (132608 PWs)   bands (ev):

   -18.4956 -18.4327 -18.3972 -18.3888 -18.3881 -18.3868 -18.3849 -18.3799
   -18.3733 -18.3675 -18.3168 -18.3086 -18.2993 -18.2933 -18.2895 -18.2842
   -18.2778 -18.2623 -18.2559 -18.2532 -18.2447 -18.2420 -18.2418 -18.2382
   -18.2355 -18.2305 -18.2242 -18.2129 -18.1915 -18.1761 -18.1747 -18.1691
   -18.1569 -18.1555 -18.1483 -18.1467 -18.1464 -18.1359 -18.1331 -18.1248
   -18.1236 -18.1191 -18.1168 -18.0640 -18.0423 -18.0195 -18.0190 -18.0161
    -9.5555  -9.4644  -9.3382  -9.2872  -9.2261  -9.1725  -9.1104  -9.0616
    -9.0218  -8.9741  -8.9381  -8.9284  -8.9115  -8.8684  -8.8500  -8.8303
    -8.7902  -8.7538  -8.7046  -8.6901  -8.6478  -8.5568  -8.5443  -8.3314
    -5.2755  -5.2686  -5.2491  -5.2225  -5.2146  -5.1990  -5.1786  -5.1769
    -5.1714  -5.1649  -5.1560  -5.1482  -5.1469  -5.1445  -5.1368  -5.0934
    -5.0799  -5.0676  -5.0598  -5.0534  -5.0495  -4.9968  -4.9897  -4.9772
    -4.3572  -4.0883  -3.8973  -3.7900  -3.5704  -3.4803  -3.2898  -2.9390
    -0.7568  -0.6684  -0.6229  -0.5877  -0.5468  -0.5255  -0.4702  -0.3060
    -0.2298  -0.0897  -0.0715   0.0125   0.3732   0.4351   0.4803   0.5028
     0.5421   0.6011   0.6432   0.6669   0.6986   0.7319   0.7654   0.8247
     0.9129   0.9380   0.9629   1.0131   1.0248   1.0870   1.1379   1.1662
     1.1984   1.2188   1.2533   1.2651   1.2993   1.3330   1.3620   1.3898
     1.4205   1.4369   1.4633   1.4789   1.5034   1.5300   1.5455   1.5710
     1.5992   1.6209   1.6519   1.6631   1.6750   1.7118   1.7329   1.7507
     1.7754   1.8155   1.8490   1.8807   1.9212   1.9955   2.0430   2.0600
     2.1100   2.1447   2.2187   2.2828   2.4232   2.5604   2.7493   2.8882

          k =-0.3750-0.1250-0.1250 (132608 PWs)   bands (ev):

   -18.4956 -18.4327 -18.3972 -18.3888 -18.3881 -18.3868 -18.3849 -18.3799
   -18.3733 -18.3675 -18.3168 -18.3086 -18.2993 -18.2933 -18.2895 -18.2842
   -18.2778 -18.2623 -18.2559 -18.2532 -18.2447 -18.2420 -18.2418 -18.2382
   -18.2355 -18.2305 -18.2242 -18.2129 -18.1915 -18.1761 -18.1747 -18.1691
   -18.1569 -18.1555 -18.1483 -18.1467 -18.1464 -18.1359 -18.1331 -18.1248
   -18.1236 -18.1191 -18.1168 -18.0640 -18.0423 -18.0195 -18.0190 -18.0161
    -9.5554  -9.4643  -9.3397  -9.2881  -9.2240  -9.1673  -9.1086  -9.0762
    -9.0159  -8.9709  -8.9412  -8.9292  -8.9074  -8.8709  -8.8498  -8.8244
    -8.7956  -8.7534  -8.7049  -8.6894  -8.6487  -8.5558  -8.5446  -8.3315
    -5.2755  -5.2687  -5.2492  -5.2226  -5.2144  -5.1990  -5.1792  -5.1758
    -5.1716  -5.1649  -5.1563  -5.1483  -5.1470  -5.1444  -5.1368  -5.0932
    -5.0801  -5.0676  -5.0602  -5.0531  -5.0494  -4.9969  -4.9898  -4.9771
    -4.3574  -4.0884  -3.8888  -3.8047  -3.5507  -3.4938  -3.2904  -2.9381
    -0.7688  -0.6439  -0.6324  -0.5900  -0.5515  -0.5096  -0.4805  -0.3282
    -0.2121  -0.0923  -0.0618   0.0158   0.3777   0.4366   0.4805   0.5116
     0.5341   0.6011   0.6365   0.6674   0.6932   0.7245   0.7441   0.8377
     0.9104   0.9417   0.9631   1.0115   1.0375   1.0848   1.1303   1.1491
     1.2015   1.2099   1.2473   1.2751   1.3150   1.3377   1.3664   1.3845
     1.4273   1.4527   1.4809   1.4912   1.5017   1.5211   1.5391   1.5517
     1.6028   1.6207   1.6402   1.6598   1.6687   1.7069   1.7312   1.7470
     1.8057   1.8166   1.8516   1.8681   1.9276   2.0041   2.0397   2.0639
     2.0891   2.1508   2.2255   2.3154   2.3629   2.5683   2.7496   2.9044

          k = 0.3750 0.1250-0.1250 (132608 PWs)   bands (ev):

   -18.4956 -18.4327 -18.3972 -18.3888 -18.3881 -18.3868 -18.3849 -18.3799
   -18.3733 -18.3675 -18.3168 -18.3086 -18.2993 -18.2933 -18.2895 -18.2842
   -18.2778 -18.2623 -18.2559 -18.2532 -18.2447 -18.2420 -18.2418 -18.2382
   -18.2355 -18.2305 -18.2242 -18.2129 -18.1915 -18.1761 -18.1747 -18.1691
   -18.1569 -18.1555 -18.1483 -18.1467 -18.1464 -18.1359 -18.1331 -18.1248
   -18.1236 -18.1191 -18.1168 -18.0640 -18.0423 -18.0195 -18.0190 -18.0161
    -9.5553  -9.4645  -9.3398  -9.2884  -9.2221  -9.1709  -9.1085  -9.0697
    -9.0185  -8.9750  -8.9415  -8.9270  -8.9091  -8.8686  -8.8476  -8.8301
    -8.7946  -8.7494  -8.7050  -8.6912  -8.6487  -8.5564  -8.5441  -8.3314
    -5.2755  -5.2686  -5.2492  -5.2225  -5.2146  -5.1990  -5.1787  -5.1770
    -5.1714  -5.1650  -5.1560  -5.1483  -5.1468  -5.1444  -5.1367  -5.0934
    -5.0798  -5.0676  -5.0599  -5.0534  -5.0495  -4.9968  -4.9898  -4.9771
    -4.3556  -4.0915  -3.8995  -3.7860  -3.5698  -3.4825  -3.2870  -2.9405
    -0.7576  -0.6559  -0.6330  -0.5821  -0.5401  -0.5264  -0.4894  -0.3095
    -0.2257  -0.1017  -0.0574   0.0135   0.3840   0.4313   0.4889   0.5080
     0.5366   0.6008   0.6431   0.6727   0.7010   0.7138   0.7575   0.8315
     0.9021   0.9399   0.9538   1.0166   1.0597   1.0885   1.1321   1.1521
     1.1922   1.2123   1.2553   1.2823   1.2985   1.3340   1.3585   1.3972
     1.4284   1.4384   1.4606   1.4853   1.4979   1.5163   1.5431   1.5545
     1.6044   1.6127   1.6338   1.6469   1.6905   1.7107   1.7426   1.7541
     1.7904   1.8164   1.8518   1.8637   1.9189   2.0078   2.0463   2.0701
     2.1073   2.1413   2.2297   2.2656   2.4382   2.5488   2.7532   2.8938

          k =-0.3750 0.1250 0.1250 (132608 PWs)   bands (ev):

   -18.4956 -18.4327 -18.3972 -18.3888 -18.3881 -18.3868 -18.3849 -18.3799
   -18.3733 -18.3675 -18.3168 -18.3086 -18.2993 -18.2933 -18.2895 -18.2842
   -18.2778 -18.2623 -18.2559 -18.2532 -18.2447 -18.2420 -18.2418 -18.2382
   -18.2355 -18.2305 -18.2242 -18.2129 -18.1915 -18.1761 -18.1747 -18.1691
   -18.1569 -18.1555 -18.1483 -18.1467 -18.1464 -18.1359 -18.1331 -18.1248
   -18.1236 -18.1191 -18.1168 -18.0640 -18.0423 -18.0195 -18.0190 -18.0161
    -9.5553  -9.4649  -9.3377  -9.2893  -9.2233  -9.1707  -9.1103  -9.0671
    -9.0214  -8.9693  -8.9458  -8.9261  -8.9085  -8.8683  -8.8500  -8.8308
    -8.7898  -8.7501  -8.7082  -8.6909  -8.6480  -8.5556  -8.5446  -8.3314
    -5.2756  -5.2686  -5.2492  -5.2227  -5.2144  -5.1990  -5.1791  -5.1758
    -5.1716  -5.1649  -5.1564  -5.1483  -5.1469  -5.1445  -5.1368  -5.0932
    -5.0801  -5.0676  -5.0603  -5.0530  -5.0494  -4.9969  -4.9897  -4.9771
    -4.3569  -4.0921  -3.8889  -3.7968  -3.5578  -3.4938  -3.2860  -2.9405
    -0.7563  -0.6577  -0.6379  -0.5854  -0.5459  -0.5166  -0.4713  -0.3054
    -0.2345  -0.1003  -0.0628   0.0062   0.3794   0.4321   0.4830   0.4927
     0.5404   0.6042   0.6525   0.6722   0.7000   0.7320   0.7673   0.8236
     0.8986   0.9293   0.9764   0.9989   1.0549   1.0893   1.1218   1.1510
     1.1994   1.2199   1.2418   1.2481   1.3210   1.3379   1.3673   1.4032
     1.4187   1.4573   1.4688   1.4925   1.5006   1.5202   1.5377   1.5678
     1.5854   1.6104   1.6384   1.6685   1.6922   1.7135   1.7406   1.7600
     1.7719   1.8130   1.8396   1.8664   1.9066   2.0137   2.0485   2.0597
     2.1098   2.1350   2.2119   2.3048   2.4190   2.5537   2.7592   2.8858

          k =-0.1250 0.3750 0.1250 (132608 PWs)   bands (ev):

   -18.4956 -18.4327 -18.3972 -18.3888 -18.3881 -18.3868 -18.3849 -18.3799
   -18.3733 -18.3675 -18.3168 -18.3086 -18.2993 -18.2932 -18.2895 -18.2842
   -18.2778 -18.2624 -18.2559 -18.2531 -18.2447 -18.2420 -18.2418 -18.2382
   -18.2355 -18.2305 -18.2242 -18.2129 -18.1915 -18.1761 -18.1747 -18.1691
   -18.1569 -18.1555 -18.1483 -18.1467 -18.1464 -18.1359 -18.1331 -18.1248
   -18.1236 -18.1191 -18.1168 -18.0640 -18.0423 -18.0195 -18.0190 -18.0161
    -9.5515  -9.4734  -9.3198  -9.2941  -9.2467  -9.1669  -9.1048  -9.0319
    -9.0278  -8.9715  -8.9559  -8.9429  -8.9187  -8.8597  -8.8461  -8.8299
    -8.7843  -8.7378  -8.7247  -8.7067  -8.6198  -8.5662  -8.5456  -8.3307
    -5.2756  -5.2684  -5.2495  -5.2242  -5.2144  -5.1987  -5.1791  -5.1743
    -5.1718  -5.1627  -5.1570  -5.1501  -5.1474  -5.1447  -5.1363  -5.0928
    -5.0795  -5.0678  -5.0596  -5.0535  -5.0492  -4.9969  -4.9901  -4.9771
    -4.3483  -4.1387  -3.8469  -3.7659  -3.6108  -3.5202  -3.2087  -2.9675
    -0.7196  -0.6747  -0.6555  -0.6255  -0.5900  -0.5165  -0.3948  -0.2826
    -0.2206  -0.1436  -0.0825   0.0879   0.3526   0.4338   0.4760   0.5042
     0.5419   0.5672   0.6078   0.6526   0.6889   0.7194   0.7787   0.7982
     0.8805   0.9088   0.9893   1.0193   1.0556   1.1017   1.1486   1.1688
     1.2058   1.2276   1.2666   1.2751   1.3183   1.3369   1.3762   1.3995
     1.4117   1.4464   1.4643   1.4773   1.4959   1.5200   1.5567   1.5666
     1.5803   1.6036   1.6253   1.6348   1.6647   1.6990   1.7264   1.7458
     1.7644   1.8005   1.8599   1.8889   1.8974   1.9575   2.0655   2.0938
     2.1381   2.1858   2.2375   2.3071   2.5139   2.5473   2.7758   2.9328

          k =-0.1250-0.3750-0.1250 (132608 PWs)   bands (ev):

   -18.4956 -18.4327 -18.3972 -18.3888 -18.3881 -18.3868 -18.3849 -18.3799
   -18.3733 -18.3675 -18.3168 -18.3086 -18.2993 -18.2932 -18.2895 -18.2842
   -18.2778 -18.2624 -18.2559 -18.2531 -18.2447 -18.2420 -18.2418 -18.2382
   -18.2355 -18.2305 -18.2242 -18.2129 -18.1915 -18.1761 -18.1747 -18.1691
   -18.1569 -18.1555 -18.1483 -18.1467 -18.1464 -18.1359 -18.1331 -18.1248
   -18.1236 -18.1191 -18.1168 -18.0640 -18.0423 -18.0195 -18.0190 -18.0161
    -9.5515  -9.4732  -9.3200  -9.2957  -9.2450  -9.1661  -9.1026  -9.0504
    -9.0093  -8.9718  -8.9611  -8.9423  -8.9164  -8.8605  -8.8444  -8.8280
    -8.7893  -8.7419  -8.7193  -8.7058  -8.6203  -8.5661  -8.5456  -8.3307
    -5.2755  -5.2684  -5.2495  -5.2241  -5.2144  -5.1987  -5.1791  -5.1743
    -5.1718  -5.1626  -5.1570  -5.1503  -5.1473  -5.1447  -5.1363  -5.0928
    -5.0795  -5.0678  -5.0595  -5.0536  -5.0492  -4.9969  -4.9901  -4.9771
    -4.3479  -4.1398  -3.8327  -3.7846  -3.5941  -3.5342  -3.2074  -2.9656
    -0.7346  -0.6944  -0.6387  -0.6073  -0.5867  -0.5124  -0.4052  -0.2925
    -0.2235  -0.1338  -0.0845   0.1098   0.3610   0.4339   0.4711   0.5137
     0.5319   0.5641   0.6036   0.6466   0.6849   0.7030   0.7864   0.8161
     0.8763   0.9012   0.9887   0.9952   1.0751   1.0946   1.1386   1.1701
     1.2046   1.2447   1.2635   1.2967   1.3059   1.3344   1.3743   1.3936
     1.4065   1.4427   1.4608   1.4886   1.5046   1.5348   1.5404   1.5609
     1.5716   1.5954   1.6012   1.6542   1.6777   1.7085   1.7354   1.7518
     1.7708   1.8199   1.8510   1.8770   1.9050   1.9611   2.0596   2.0901
     2.1342   2.1834   2.2589   2.3082   2.4688   2.5379   2.7849   2.9527

          k = 0.1250 0.3750-0.1250 (132608 PWs)   bands (ev):

   -18.4956 -18.4327 -18.3972 -18.3888 -18.3881 -18.3868 -18.3849 -18.3799
   -18.3733 -18.3675 -18.3168 -18.3086 -18.2993 -18.2932 -18.2895 -18.2842
   -18.2778 -18.2624 -18.2559 -18.2531 -18.2447 -18.2420 -18.2418 -18.2382
   -18.2355 -18.2305 -18.2242 -18.2129 -18.1915 -18.1761 -18.1747 -18.1691
   -18.1569 -18.1555 -18.1483 -18.1467 -18.1464 -18.1359 -18.1331 -18.1248
   -18.1236 -18.1191 -18.1168 -18.0640 -18.0423 -18.0195 -18.0190 -18.0161
    -9.5514  -9.4733  -9.3215  -9.2951  -9.2424  -9.1687  -9.1025  -9.0466
    -9.0140  -8.9746  -8.9533  -8.9435  -8.9178  -8.8610  -8.8415  -8.8335
    -8.7893  -8.7344  -8.7226  -8.7077  -8.6194  -8.5673  -8.5452  -8.3307
    -5.2755  -5.2684  -5.2494  -5.2240  -5.2146  -5.1987  -5.1788  -5.1757
    -5.1714  -5.1627  -5.1565  -5.1502  -5.1473  -5.1447  -5.1364  -5.0929
    -5.0793  -5.0678  -5.0591  -5.0541  -5.0492  -4.9968  -4.9901  -4.9771
    -4.3452  -4.1461  -3.8257  -3.7865  -3.5901  -3.5429  -3.2000  -2.9702
    -0.7178  -0.6828  -0.6509  -0.6278  -0.5833  -0.5036  -0.4152  -0.3035
    -0.2178  -0.1472  -0.0738   0.1112   0.3888   0.4311   0.4545   0.5145
     0.5482   0.5743   0.5875   0.6357   0.6936   0.7113   0.7828   0.8053
     0.8707   0.9089   0.9784   1.0081   1.0527   1.1261   1.1338   1.1842
     1.1926   1.2422   1.2628   1.2962   1.3165   1.3352   1.3604   1.3865
     1.4245   1.4489   1.4646   1.4756   1.5037   1.5269   1.5466   1.5562
     1.5681   1.5821   1.6020   1.6384   1.6778   1.7156   1.7387   1.7543
     1.7663   1.8160   1.8524   1.8795   1.9151   1.9522   2.0619   2.0892
     2.1345   2.1858   2.2471   2.3010   2.5082   2.5534   2.7746   2.9357

          k = 0.1250-0.3750 0.1250 (132608 PWs)   bands (ev):

   -18.4956 -18.4327 -18.3972 -18.3888 -18.3881 -18.3868 -18.3849 -18.3799
   -18.3733 -18.3675 -18.3168 -18.3086 -18.2993 -18.2932 -18.2895 -18.2842
   -18.2778 -18.2624 -18.2559 -18.2531 -18.2447 -18.2420 -18.2418 -18.2382
   -18.2355 -18.2305 -18.2242 -18.2129 -18.1915 -18.1761 -18.1747 -18.1691
   -18.1569 -18.1555 -18.1483 -18.1467 -18.1464 -18.1359 -18.1331 -18.1248
   -18.1236 -18.1191 -18.1168 -18.0640 -18.0423 -18.0195 -18.0190 -18.0161
    -9.5516  -9.4733  -9.3177  -9.2949  -9.2473  -9.1707  -9.1035  -9.0329
    -9.0214  -8.9737  -8.9579  -8.9424  -8.9167  -8.8611  -8.8399  -8.8370
    -8.7868  -8.7385  -8.7214  -8.7057  -8.6191  -8.5676  -8.5453  -8.3307
    -5.2755  -5.2684  -5.2494  -5.2240  -5.2146  -5.1987  -5.1788  -5.1756
    -5.1714  -5.1626  -5.1566  -5.1501  -5.1474  -5.1447  -5.1364  -5.0929
    -5.0794  -5.0678  -5.0590  -5.0541  -5.0492  -4.9968  -4.9901  -4.9772
    -4.3462  -4.1461  -3.8291  -3.7701  -3.6087  -3.5389  -3.1980  -2.9695
    -0.7213  -0.6956  -0.6415  -0.6212  -0.5839  -0.5059  -0.4079  -0.2984
    -0.2124  -0.1545  -0.0707   0.0947   0.3770   0.4256   0.4728   0.5099
     0.5401   0.5732   0.6036   0.6523   0.6850   0.7164   0.7813   0.7950
     0.8702   0.9190   0.9744   1.0054   1.0575   1.0966   1.1433   1.1854
     1.2009   1.2348   1.2664   1.2850   1.3056   1.3347   1.3611   1.3972
     1.4218   1.4386   1.4743   1.4822   1.4975   1.5358   1.5461   1.5655
     1.5915   1.5961   1.6151   1.6342   1.6688   1.7028   1.7323   1.7512
     1.7703   1.8034   1.8508   1.8829   1.9178   1.9510   2.0560   2.0958
     2.1415   2.1874   2.2463   2.3115   2.4841   2.5364   2.7864   2.9359

          k =-0.1250-0.3750 0.3750 (132616 PWs)   bands (ev):

   -18.4956 -18.4327 -18.3972 -18.3888 -18.3881 -18.3868 -18.3849 -18.3799
   -18.3733 -18.3675 -18.3168 -18.3086 -18.2993 -18.2932 -18.2895 -18.2842
   -18.2778 -18.2624 -18.2559 -18.2531 -18.2447 -18.2420 -18.2418 -18.2382
   -18.2355 -18.2305 -18.2242 -18.2129 -18.1915 -18.1761 -18.1747 -18.1691
   -18.1569 -18.1555 -18.1483 -18.1467 -18.1464 -18.1359 -18.1331 -18.1248
   -18.1236 -18.1191 -18.1168 -18.0640 -18.0423 -18.0195 -18.0190 -18.0161
    -9.5472  -9.4695  -9.3230  -9.3011  -9.2499  -9.1662  -9.1012  -9.0414
    -9.0224  -8.9872  -8.9633  -8.9298  -8.9208  -8.8628  -8.8378  -8.8195
    -8.7829  -8.7363  -8.7184  -8.7044  -8.6183  -8.5749  -8.5478  -8.3312
    -5.2756  -5.2681  -5.2494  -5.2243  -5.2147  -5.1985  -5.1801  -5.1762
    -5.1692  -5.1626  -5.1562  -5.1503  -5.1473  -5.1446  -5.1363  -5.0932
    -5.0796  -5.0679  -5.0591  -5.0543  -5.0488  -4.9967  -4.9903  -4.9771
    -4.2236  -4.0919  -3.9155  -3.8124  -3.6086  -3.4895  -3.3116  -3.1670
    -0.7074  -0.6397  -0.5787  -0.5495  -0.3907  -0.3179  -0.2274  -0.1660
    -0.0903  -0.0476   0.0866   0.1613   0.3169   0.4157   0.4291   0.4753
     0.5156   0.5375   0.5602   0.6014   0.6179   0.6538   0.6767   0.7478
     0.7958   0.8587   0.9281   0.9401   0.9963   1.0460   1.0588   1.0875
     1.1354   1.1719   1.2291   1.2557   1.2940   1.3366   1.3453   1.3808
     1.4327   1.4567   1.4717   1.4930   1.5116   1.5369   1.5602   1.5782
     1.5857   1.6049   1.6219   1.6525   1.7058   1.7366   1.7587   1.7797
     1.8047   1.8253   1.8516   1.8596   1.9198   1.9388   2.0106   2.0485
     2.0640   2.1101   2.1802   2.2030   2.3418   2.4681   2.5423   2.6952

          k =-0.1250 0.3750-0.3750 (132616 PWs)   bands (ev):

   -18.4956 -18.4327 -18.3972 -18.3888 -18.3881 -18.3868 -18.3849 -18.3799
   -18.3733 -18.3675 -18.3168 -18.3086 -18.2993 -18.2932 -18.2895 -18.2842
   -18.2778 -18.2624 -18.2559 -18.2531 -18.2447 -18.2420 -18.2418 -18.2382
   -18.2355 -18.2305 -18.2242 -18.2129 -18.1915 -18.1761 -18.1747 -18.1691
   -18.1569 -18.1555 -18.1483 -18.1467 -18.1464 -18.1359 -18.1331 -18.1248
   -18.1236 -18.1191 -18.1168 -18.0640 -18.0423 -18.0195 -18.0190 -18.0161
    -9.5474  -9.4697  -9.3174  -9.3022  -9.2545  -9.1695  -9.1025  -9.0322
    -9.0177  -8.9898  -8.9645  -8.9421  -8.9156  -8.8549  -8.8463  -8.8169
    -8.7829  -8.7366  -8.7217  -8.7005  -8.6184  -8.5752  -8.5479  -8.3312
    -5.2756  -5.2682  -5.2494  -5.2243  -5.2147  -5.1986  -5.1802  -5.1761
    -5.1692  -5.1626  -5.1562  -5.1501  -5.1474  -5.1447  -5.1363  -5.0932
    -5.0797  -5.0680  -5.0590  -5.0543  -5.0487  -4.9967  -4.9902  -4.9772
    -4.2264  -4.0903  -3.9179  -3.7937  -3.6323  -3.4835  -3.3113  -3.1647
    -0.7028  -0.6462  -0.5816  -0.5530  -0.3862  -0.3090  -0.2241  -0.1643
    -0.0979  -0.0455   0.0902   0.1517   0.3166   0.4104   0.4578   0.4746
     0.4993   0.5351   0.5669   0.5888   0.6189   0.6493   0.6894   0.7471
     0.7848   0.8477   0.9376   0.9559   0.9819   1.0251   1.0438   1.0820
     1.1387   1.2078   1.2469   1.2588   1.2773   1.3190   1.3708   1.3887
     1.4127   1.4484   1.4736   1.5026   1.5185   1.5426   1.5589   1.5682
     1.5881   1.6165   1.6370   1.6712   1.6907   1.7180   1.7454   1.7802
     1.8024   1.8327   1.8524   1.8692   1.9181   1.9579   2.0100   2.0499
     2.0730   2.0967   2.1651   2.2121   2.3099   2.4599   2.5554   2.6966

          k = 0.1250-0.3750-0.3750 (132616 PWs)   bands (ev):

   -18.4956 -18.4327 -18.3972 -18.3888 -18.3881 -18.3868 -18.3849 -18.3799
   -18.3733 -18.3675 -18.3168 -18.3086 -18.2993 -18.2932 -18.2895 -18.2842
   -18.2778 -18.2624 -18.2559 -18.2531 -18.2447 -18.2420 -18.2418 -18.2382
   -18.2355 -18.2305 -18.2242 -18.2129 -18.1915 -18.1761 -18.1747 -18.1691
   -18.1569 -18.1555 -18.1483 -18.1467 -18.1464 -18.1359 -18.1331 -18.1248
   -18.1236 -18.1191 -18.1168 -18.0640 -18.0423 -18.0195 -18.0190 -18.0161
    -9.5472  -9.4698  -9.3201  -9.3006  -9.2541  -9.1657  -9.1038  -9.0307
    -9.0267  -8.9851  -8.9647  -8.9390  -8.9196  -8.8550  -8.8449  -8.8159
    -8.7797  -8.7396  -8.7185  -8.7047  -8.6192  -8.5734  -8.5481  -8.3312
    -5.2757  -5.2681  -5.2494  -5.2246  -5.2145  -5.1986  -5.1802  -5.1756
    -5.1691  -5.1626  -5.1567  -5.1501  -5.1474  -5.1446  -5.1363  -5.0930
    -5.0799  -5.0679  -5.0596  -5.0537  -5.0487  -4.9967  -4.9903  -4.9771
    -4.2348  -4.0501  -3.9686  -3.7753  -3.6481  -3.4110  -3.3780  -3.1547
    -0.7008  -0.6402  -0.5813  -0.5579  -0.4060  -0.3101  -0.2035  -0.1525
    -0.0688  -0.0437   0.0779   0.1142   0.2802   0.4044   0.4421   0.4791
     0.5135   0.5400   0.5746   0.6019   0.6303   0.6726   0.6845   0.7340
     0.7996   0.8460   0.9234   0.9565   0.9833   1.0274   1.0621   1.0869
     1.1464   1.1960   1.2195   1.2483   1.3039   1.3318   1.3495   1.3735
     1.4301   1.4497   1.4702   1.5053   1.5222   1.5300   1.5656   1.5763
     1.6161   1.6194   1.6348   1.6496   1.6831   1.7221   1.7557   1.7673
     1.7926   1.8173   1.8575   1.8694   1.9015   1.9628   1.9926   2.0489
     2.0700   2.1066   2.1790   2.2084   2.3638   2.4442   2.5420   2.6966

          k = 0.3750 0.1250-0.3750 (132616 PWs)   bands (ev):

   -18.4956 -18.4327 -18.3972 -18.3888 -18.3881 -18.3868 -18.3849 -18.3799
   -18.3733 -18.3675 -18.3168 -18.3086 -18.2993 -18.2933 -18.2895 -18.2842
   -18.2778 -18.2623 -18.2559 -18.2532 -18.2447 -18.2420 -18.2418 -18.2382
   -18.2355 -18.2305 -18.2242 -18.2129 -18.1915 -18.1761 -18.1747 -18.1691
   -18.1569 -18.1555 -18.1483 -18.1467 -18.1464 -18.1359 -18.1331 -18.1248
   -18.1236 -18.1191 -18.1168 -18.0640 -18.0423 -18.0195 -18.0190 -18.0161
    -9.5489  -9.4679  -9.3314  -9.2923  -9.2354  -9.1750  -9.1069  -9.0582
    -9.0287  -8.9877  -8.9420  -8.9251  -8.9140  -8.8654  -8.8399  -8.8217
    -8.7872  -8.7422  -8.7085  -8.6942  -8.6402  -8.5669  -8.5462  -8.3315
    -5.2754  -5.2683  -5.2491  -5.2227  -5.2152  -5.1989  -5.1791  -5.1780
    -5.1691  -5.1649  -5.1567  -5.1482  -5.1469  -5.1446  -5.1364  -5.0931
    -5.0796  -5.0676  -5.0588  -5.0549  -5.0497  -4.9967  -4.9899  -4.9771
    -4.2328  -4.0570  -3.9564  -3.7287  -3.6725  -3.4808  -3.3593  -3.1387
    -0.7408  -0.6192  -0.5894  -0.4872  -0.3910  -0.3093  -0.2336  -0.1749
    -0.1222  -0.0409   0.0751   0.1208   0.3338   0.3952   0.4378   0.4925
     0.5148   0.5582   0.5849   0.6091   0.6497   0.6778   0.7128   0.7436
     0.7989   0.8558   0.8966   0.9140   0.9914   1.0192   1.0218   1.0888
     1.1415   1.1983   1.2241   1.2429   1.2880   1.3132   1.3370   1.3953
     1.4168   1.4580   1.4889   1.5133   1.5224   1.5382   1.5629   1.5804
     1.6209   1.6427   1.6593   1.6829   1.7044   1.7299   1.7606   1.7913
     1.8040   1.8119   1.8600   1.8677   1.9079   1.9430   2.0043   2.0387
     2.0650   2.0965   2.1590   2.1774   2.2665   2.4393   2.5142   2.6229

          k =-0.3750-0.1250-0.3750 (132616 PWs)   bands (ev):

   -18.4956 -18.4327 -18.3972 -18.3888 -18.3881 -18.3868 -18.3849 -18.3799
   -18.3733 -18.3675 -18.3168 -18.3086 -18.2993 -18.2933 -18.2895 -18.2842
   -18.2778 -18.2623 -18.2559 -18.2532 -18.2447 -18.2420 -18.2418 -18.2382
   -18.2355 -18.2305 -18.2242 -18.2129 -18.1915 -18.1761 -18.1747 -18.1691
   -18.1569 -18.1555 -18.1483 -18.1467 -18.1464 -18.1359 -18.1331 -18.1248
   -18.1236 -18.1191 -18.1168 -18.0640 -18.0423 -18.0195 -18.0190 -18.0161
    -9.5490  -9.4676  -9.3316  -9.2911  -9.2380  -9.1716  -9.1068  -9.0675
    -9.0226  -8.9853  -8.9421  -8.9258  -8.9136  -8.8651  -8.8425  -8.8179
    -8.7876  -8.7469  -8.7076  -8.6924  -8.6405  -8.5659  -8.5467  -8.3315
    -5.2754  -5.2683  -5.2491  -5.2229  -5.2150  -5.1989  -5.1795  -5.1771
    -5.1691  -5.1648  -5.1570  -5.1481  -5.1471  -5.1446  -5.1364  -5.0930
    -5.0799  -5.0675  -5.0593  -5.0543  -5.0497  -4.9968  -4.9898  -4.9771
    -4.2393  -4.0310  -3.9721  -3.7558  -3.6450  -3.4712  -3.3797  -3.1319
    -0.7466  -0.6120  -0.5923  -0.4913  -0.3903  -0.3186  -0.2352  -0.1531
    -0.0994  -0.0600   0.0795   0.1333   0.3281   0.3944   0.4437   0.4600
     0.5024   0.5560   0.5775   0.6034   0.6413   0.6632   0.7469   0.7572
     0.7953   0.8676   0.9010   0.9245   0.9691   0.9971   1.0313   1.0689
     1.1856   1.1936   1.2261   1.2386   1.2916   1.3074   1.3442   1.3704
     1.4324   1.4501   1.4940   1.5067   1.5256   1.5553   1.5690   1.5911
     1.6242   1.6377   1.6717   1.6848   1.6978   1.7310   1.7562   1.7893
     1.8056   1.8141   1.8563   1.8926   1.9185   1.9412   1.9856   2.0169
     2.0439   2.1033   2.1364   2.1756   2.3106   2.4077   2.5112   2.6372

          k = 0.3750-0.1250 0.3750 (132616 PWs)   bands (ev):

   -18.4956 -18.4327 -18.3972 -18.3888 -18.3881 -18.3868 -18.3849 -18.3799
   -18.3733 -18.3675 -18.3168 -18.3086 -18.2993 -18.2933 -18.2895 -18.2842
   -18.2778 -18.2623 -18.2559 -18.2532 -18.2447 -18.2420 -18.2418 -18.2382
   -18.2355 -18.2305 -18.2242 -18.2129 -18.1915 -18.1761 -18.1747 -18.1691
   -18.1569 -18.1555 -18.1483 -18.1467 -18.1464 -18.1359 -18.1331 -18.1248
   -18.1236 -18.1191 -18.1168 -18.0640 -18.0423 -18.0195 -18.0190 -18.0161
    -9.5491  -9.4678  -9.3293  -9.2901  -9.2401  -9.1777  -9.1093  -9.0495
    -9.0270  -8.9888  -8.9407  -8.9306  -8.9154  -8.8602  -8.8456  -8.8195
    -8.7849  -8.7471  -8.7079  -8.6917  -8.6401  -8.5671  -8.5464  -8.3315
    -5.2754  -5.2683  -5.2491  -5.2228  -5.2152  -5.1989  -5.1791  -5.1779
    -5.1691  -5.1649  -5.1566  -5.1480  -5.1471  -5.1447  -5.1364  -5.0931
    -5.0797  -5.0676  -5.0586  -5.0550  -5.0497  -4.9967  -4.9898  -4.9772
    -4.2382  -4.0383  -3.9677  -3.7395  -3.6631  -3.4741  -3.3709  -3.1344
    -0.7386  -0.6234  -0.5896  -0.4844  -0.3928  -0.3311  -0.2173  -0.1557
    -0.1083  -0.0623   0.0688   0.1364   0.3322   0.3938   0.4444   0.4756
     0.5004   0.5569   0.5793   0.6072   0.6348   0.6776   0.7112   0.7670
     0.8148   0.8688   0.8918   0.9267   0.9597   0.9958   1.0399   1.0742
     1.1625   1.2005   1.2255   1.2573   1.2750   1.3145   1.3435   1.3767
     1.4251   1.4531   1.4867   1.5139   1.5316   1.5405   1.5817   1.6004
     1.6193   1.6460   1.6517   1.6693   1.7045   1.7303   1.7470   1.7795
     1.8018   1.8323   1.8549   1.8961   1.9116   1.9531   1.9699   2.0329
     2.0530   2.1139   2.1259   2.1751   2.3199   2.4075   2.5087   2.6241

          k =-0.3750 0.1250 0.3750 (132616 PWs)   bands (ev):

   -18.4956 -18.4327 -18.3972 -18.3888 -18.3881 -18.3868 -18.3849 -18.3799
   -18.3733 -18.3675 -18.3168 -18.3086 -18.2993 -18.2933 -18.2895 -18.2842
   -18.2778 -18.2623 -18.2559 -18.2532 -18.2447 -18.2420 -18.2418 -18.2382
   -18.2355 -18.2305 -18.2242 -18.2129 -18.1915 -18.1761 -18.1747 -18.1691
   -18.1569 -18.1555 -18.1483 -18.1467 -18.1464 -18.1359 -18.1331 -18.1248
   -18.1236 -18.1191 -18.1168 -18.0640 -18.0423 -18.0195 -18.0190 -18.0161
    -9.5489  -9.4684  -9.3281  -9.2939  -9.2364  -9.1762  -9.1090  -9.0570
    -9.0248  -8.9856  -8.9449  -8.9270  -8.9160  -8.8579  -8.8494  -8.8171
    -8.7853  -8.7425  -8.7108  -8.6941  -8.6403  -8.5659  -8.5465  -8.3315
    -5.2755  -5.2683  -5.2491  -5.2230  -5.2150  -5.1989  -5.1795  -5.1771
    -5.1690  -5.1648  -5.1570  -5.1481  -5.1470  -5.1447  -5.1364  -5.0929
    -5.0798  -5.0676  -5.0594  -5.0542  -5.0497  -4.9968  -4.9898  -4.9771
    -4.2362  -4.0545  -3.9510  -3.7377  -3.6661  -3.4816  -3.3617  -3.1377
    -0.7372  -0.6221  -0.5935  -0.4810  -0.3966  -0.3051  -0.2253  -0.1634
    -0.1350  -0.0396   0.0726   0.1168   0.3319   0.3974   0.4261   0.4814
     0.5004   0.5539   0.5882   0.6344   0.6595   0.6744   0.7226   0.7466
     0.7987   0.8542   0.8841   0.9172   0.9695   1.0101   1.0255   1.1099
     1.1372   1.1962   1.2109   1.2438   1.3032   1.3227   1.3414   1.3834
     1.4322   1.4444   1.4885   1.5047   1.5204   1.5502   1.5879   1.6049
     1.6145   1.6451   1.6588   1.6852   1.6983   1.7269   1.7654   1.7765
     1.8048   1.8258   1.8490   1.8612   1.8899   1.9600   1.9833   2.0394
     2.0721   2.0954   2.1520   2.1693   2.2812   2.4387   2.5156   2.6162

          k = 0.3750-0.3750 0.1250 (132616 PWs)   bands (ev):

   -18.4956 -18.4327 -18.3972 -18.3888 -18.3881 -18.3868 -18.3849 -18.3799
   -18.3733 -18.3675 -18.3168 -18.3086 -18.2993 -18.2932 -18.2895 -18.2842
   -18.2778 -18.2623 -18.2559 -18.2532 -18.2447 -18.2420 -18.2418 -18.2382
   -18.2355 -18.2305 -18.2242 -18.2129 -18.1915 -18.1761 -18.1747 -18.1691
   -18.1569 -18.1555 -18.1483 -18.1467 -18.1464 -18.1359 -18.1331 -18.1248
   -18.1236 -18.1191 -18.1168 -18.0640 -18.0423 -18.0195 -18.0190 -18.0161
    -9.5472  -9.4677  -9.3266  -9.2907  -9.2468  -9.1838  -9.1255  -9.0378
    -9.0123  -8.9714  -8.9491  -8.9335  -8.9079  -8.8638  -8.8386  -8.8309
    -8.7920  -8.7447  -8.7165  -8.7024  -8.6182  -8.5689  -8.5491  -8.3319
    -5.2754  -5.2684  -5.2491  -5.2241  -5.2146  -5.1988  -5.1786  -5.1756
    -5.1714  -5.1647  -5.1567  -5.1483  -5.1468  -5.1445  -5.1367  -5.0932
    -5.0796  -5.0676  -5.0589  -5.0543  -5.0494  -4.9969  -4.9898  -4.9774
    -4.2374  -4.0547  -3.9292  -3.7564  -3.6711  -3.4889  -3.3550  -3.1421
    -0.6428  -0.6036  -0.5338  -0.5061  -0.4085  -0.3709  -0.2626  -0.2000
    -0.1226  -0.0737   0.0560   0.1518   0.2948   0.3817   0.4585   0.4889
     0.5263   0.5589   0.5749   0.6179   0.6665   0.6954   0.7152   0.7644
     0.7917   0.8886   0.9269   0.9445   0.9785   1.0165   1.0493   1.0969
     1.1400   1.1654   1.1763   1.2176   1.2488   1.2862   1.3352   1.3692
     1.4032   1.4366   1.4706   1.5180   1.5483   1.5747   1.5811   1.6063
     1.6090   1.6201   1.6581   1.6813   1.7035   1.7303   1.7594   1.7704
     1.7915   1.8190   1.8598   1.8639   1.9083   1.9520   1.9772   2.0354
     2.0655   2.0857   2.1205   2.1901   2.3856   2.4884   2.5232   2.6229

          k =-0.3750-0.3750-0.1250 (132616 PWs)   bands (ev):

   -18.4956 -18.4327 -18.3972 -18.3888 -18.3881 -18.3868 -18.3849 -18.3799
   -18.3733 -18.3675 -18.3168 -18.3086 -18.2993 -18.2933 -18.2895 -18.2842
   -18.2778 -18.2623 -18.2559 -18.2532 -18.2447 -18.2420 -18.2418 -18.2382
   -18.2355 -18.2305 -18.2242 -18.2129 -18.1915 -18.1761 -18.1747 -18.1691
   -18.1569 -18.1555 -18.1483 -18.1467 -18.1464 -18.1359 -18.1331 -18.1248
   -18.1236 -18.1191 -18.1168 -18.0640 -18.0423 -18.0195 -18.0190 -18.0161
    -9.5470  -9.4676  -9.3286  -9.2922  -9.2430  -9.1802  -9.1275  -9.0481
    -9.0065  -8.9639  -8.9555  -8.9345  -8.9055  -8.8651  -8.8382  -8.8249
    -8.7975  -8.7450  -8.7159  -8.7025  -8.6195  -8.5671  -8.5496  -8.3320
    -5.2754  -5.2685  -5.2492  -5.2242  -5.2144  -5.1988  -5.1790  -5.1745
    -5.1718  -5.1648  -5.1570  -5.1484  -5.1468  -5.1444  -5.1367  -5.0931
    -5.0797  -5.0676  -5.0594  -5.0537  -5.0493  -4.9970  -4.9898  -4.9773
    -4.2385  -4.0468  -3.9404  -3.7479  -3.6772  -3.4806  -3.3638  -3.1393
    -0.6531  -0.6014  -0.5353  -0.5006  -0.4085  -0.3385  -0.2997  -0.2109
    -0.1045  -0.0622   0.0204   0.2114   0.2975   0.4058   0.4358   0.4673
     0.5205   0.5365   0.5817   0.6119   0.6381   0.6684   0.7409   0.7948
     0.8197   0.8611   0.9281   0.9372   0.9770   1.0212   1.0503   1.0763
     1.1417   1.1607   1.2020   1.2271   1.2535   1.2928   1.3141   1.3865
     1.4022   1.4509   1.4723   1.5154   1.5509   1.5630   1.5751   1.5991
     1.6109   1.6239   1.6649   1.6813   1.7024   1.7154   1.7448   1.7635
     1.8119   1.8334   1.8456   1.8940   1.9116   1.9397   1.9747   2.0266
     2.0706   2.0883   2.1213   2.1862   2.3562   2.4788   2.5348   2.6456

          k = 0.3750 0.3750-0.1250 (132616 PWs)   bands (ev):

   -18.4956 -18.4327 -18.3972 -18.3888 -18.3881 -18.3868 -18.3849 -18.3799
   -18.3733 -18.3675 -18.3168 -18.3086 -18.2993 -18.2932 -18.2895 -18.2842
   -18.2778 -18.2623 -18.2559 -18.2532 -18.2447 -18.2420 -18.2418 -18.2382
   -18.2355 -18.2305 -18.2242 -18.2129 -18.1915 -18.1761 -18.1747 -18.1691
   -18.1569 -18.1555 -18.1483 -18.1467 -18.1464 -18.1359 -18.1331 -18.1248
   -18.1236 -18.1191 -18.1168 -18.0640 -18.0423 -18.0195 -18.0190 -18.0161
    -9.5469  -9.4676  -9.3303  -9.2905  -9.2423  -9.1819  -9.1269  -9.0428
    -9.0110  -8.9710  -8.9450  -8.9376  -8.9084  -8.8608  -8.8404  -8.8275
    -8.7958  -8.7425  -8.7141  -8.7059  -8.6186  -8.5684  -8.5490  -8.3319
    -5.2754  -5.2684  -5.2492  -5.2241  -5.2146  -5.1988  -5.1787  -5.1758
    -5.1714  -5.1648  -5.1566  -5.1484  -5.1468  -5.1444  -5.1367  -5.0932
    -5.0795  -5.0676  -5.0590  -5.0542  -5.0494  -4.9969  -4.9899  -4.9773
    -4.2353  -4.0490  -3.9476  -3.7338  -3.6897  -3.4725  -3.3634  -3.1434
    -0.6402  -0.5974  -0.5303  -0.5047  -0.4409  -0.3362  -0.2862  -0.2134
    -0.1115  -0.0690   0.0213   0.2096   0.3102   0.3920   0.4413   0.4794
     0.5079   0.5526   0.5733   0.6237   0.6449   0.6945   0.7248   0.7728
     0.8231   0.8697   0.9209   0.9501   0.9825   1.0292   1.0395   1.0953
     1.1120   1.1675   1.1963   1.2309   1.2517   1.2837   1.3462   1.3604
     1.3978   1.4391   1.4695   1.5216   1.5326   1.5663   1.5763   1.5867
     1.6118   1.6192   1.6599   1.6669   1.7085   1.7298   1.7588   1.7727
     1.8005   1.8233   1.8543   1.8837   1.9082   1.9570   1.9804   2.0300
     2.0713   2.0832   2.1103   2.1901   2.4162   2.4664   2.5340   2.6173

          k =-0.3750 0.3750 0.1250 (132616 PWs)   bands (ev):

   -18.4956 -18.4327 -18.3972 -18.3888 -18.3881 -18.3868 -18.3849 -18.3799
   -18.3733 -18.3675 -18.3168 -18.3086 -18.2993 -18.2932 -18.2895 -18.2842
   -18.2778 -18.2623 -18.2559 -18.2532 -18.2447 -18.2420 -18.2418 -18.2382
   -18.2355 -18.2305 -18.2242 -18.2129 -18.1915 -18.1761 -18.1747 -18.1691
   -18.1569 -18.1555 -18.1483 -18.1467 -18.1464 -18.1359 -18.1331 -18.1248
   -18.1236 -18.1191 -18.1168 -18.0640 -18.0423 -18.0195 -18.0190 -18.0161
    -9.5469  -9.4680  -9.3274  -9.2918  -9.2448  -9.1801  -9.1280  -9.0434
    -9.0121  -8.9620  -8.9539  -8.9340  -8.9083  -8.8647  -8.8396  -8.8285
    -8.7905  -8.7427  -8.7189  -8.7041  -8.6188  -8.5672  -8.5495  -8.3319
    -5.2755  -5.2684  -5.2492  -5.2243  -5.2144  -5.1988  -5.1790  -5.1746
    -5.1718  -5.1647  -5.1570  -5.1483  -5.1468  -5.1444  -5.1367  -5.0930
    -5.0797  -5.0676  -5.0595  -5.0537  -5.0493  -4.9970  -4.9898  -4.9773
    -4.2387  -4.0481  -3.9359  -3.7639  -3.6635  -3.4773  -3.3655  -3.1422
    -0.6457  -0.5956  -0.5351  -0.5029  -0.4200  -0.3583  -0.2699  -0.1937
    -0.1288  -0.0677   0.0611   0.1372   0.2857   0.3848   0.4536   0.4891
     0.5177   0.5469   0.5949   0.6247   0.6655   0.6986   0.7177   0.7662
     0.7898   0.8900   0.9246   0.9631   0.9980   1.0191   1.0439   1.0788
     1.1008   1.1462   1.1905   1.2332   1.2549   1.3032   1.3301   1.3865
     1.4132   1.4378   1.4801   1.4984   1.5464   1.5606   1.5859   1.6021
     1.6091   1.6328   1.6559   1.6868   1.6941   1.7273   1.7449   1.7595
     1.7833   1.8242   1.8636   1.8672   1.8970   1.9596   1.9828   2.0396
     2.0711   2.0936   2.0961   2.2006   2.3957   2.4886   2.5291   2.6161

          k =-0.3750-0.3750 0.3750 (132612 PWs)   bands (ev):

   -18.4956 -18.4327 -18.3972 -18.3888 -18.3881 -18.3868 -18.3849 -18.3799
   -18.3733 -18.3675 -18.3168 -18.3086 -18.2993 -18.2932 -18.2895 -18.2842
   -18.2778 -18.2623 -18.2559 -18.2532 -18.2447 -18.2420 -18.2418 -18.2382
   -18.2355 -18.2305 -18.2242 -18.2129 -18.1915 -18.1761 -18.1747 -18.1691
   -18.1569 -18.1555 -18.1483 -18.1467 -18.1464 -18.1359 -18.1331 -18.1248
   -18.1236 -18.1191 -18.1168 -18.0640 -18.0423 -18.0195 -18.0190 -18.0161
    -9.5436  -9.4639  -9.3262  -9.2965  -9.2519  -9.1819  -9.1252  -9.0424
    -9.0248  -8.9741  -8.9501  -8.9331  -8.9096  -8.8586  -8.8335  -8.8164
    -8.7889  -8.7399  -8.7169  -8.7037  -8.6175  -8.5757  -8.5505  -8.3322
    -5.2755  -5.2683  -5.2492  -5.2244  -5.2148  -5.1986  -5.1800  -5.1764
    -5.1692  -5.1647  -5.1564  -5.1482  -5.1469  -5.1446  -5.1364  -5.0934
    -5.0797  -5.0675  -5.0589  -5.0542  -5.0490  -4.9967  -4.9899  -4.9772
    -4.1150  -4.0010  -3.8817  -3.7974  -3.6432  -3.5947  -3.4765  -3.3290
    -0.4860  -0.4373  -0.3647  -0.3454  -0.2920  -0.2409  -0.1915  -0.1384
    -0.0531  -0.0208   0.0892   0.2247   0.3051   0.3322   0.3875   0.4166
     0.4560   0.5105   0.5455   0.5823   0.5996   0.6251   0.6757   0.7306
     0.7911   0.8595   0.8878   0.9553   0.9718   0.9923   1.0167   1.0350
     1.0650   1.1038   1.1176   1.1664   1.2030   1.2330   1.2866   1.3353
     1.4176   1.4365   1.4938   1.5084   1.5155   1.5791   1.6061   1.6225
     1.6351   1.6521   1.6805   1.7075   1.7229   1.7526   1.7680   1.7921
     1.8102   1.8350   1.8575   1.8640   1.8981   1.9405   1.9846   2.0124
     2.0230   2.0491   2.0908   2.1532   2.1932   2.2287   2.2695   2.3682

          k =-0.3750 0.3750-0.3750 (132612 PWs)   bands (ev):

   -18.4956 -18.4327 -18.3972 -18.3888 -18.3881 -18.3868 -18.3849 -18.3799
   -18.3733 -18.3675 -18.3168 -18.3086 -18.2993 -18.2932 -18.2895 -18.2842
   -18.2778 -18.2623 -18.2559 -18.2532 -18.2447 -18.2420 -18.2418 -18.2382
   -18.2355 -18.2305 -18.2242 -18.2129 -18.1915 -18.1761 -18.1747 -18.1691
   -18.1569 -18.1555 -18.1483 -18.1467 -18.1464 -18.1359 -18.1331 -18.1248
   -18.1236 -18.1191 -18.1168 -18.0640 -18.0423 -18.0195 -18.0190 -18.0161
    -9.5438  -9.4642  -9.3207  -9.2972  -9.2569  -9.1856  -9.1235  -9.0396
    -9.0203  -8.9740  -8.9478  -8.9425  -8.9084  -8.8557  -8.8382  -8.8130
    -8.7891  -8.7405  -8.7203  -8.6995  -8.6176  -8.5760  -8.5505  -8.3322
    -5.2755  -5.2684  -5.2492  -5.2245  -5.2148  -5.1987  -5.1800  -5.1762
    -5.1692  -5.1646  -5.1564  -5.1482  -5.1469  -5.1447  -5.1365  -5.0934
    -5.0798  -5.0676  -5.0588  -5.0542  -5.0489  -4.9967  -4.9898  -4.9773
    -4.1223  -3.9971  -3.8709  -3.7802  -3.6824  -3.5876  -3.4733  -3.3247
    -0.4711  -0.4333  -0.4145  -0.3486  -0.2911  -0.2088  -0.1646  -0.1357
    -0.0843  -0.0011   0.0981   0.1942   0.2912   0.3545   0.4061   0.4289
     0.4403   0.4949   0.5360   0.5538   0.6116   0.6430   0.6811   0.7175
     0.8068   0.8367   0.8915   0.9379   0.9594   0.9950   1.0046   1.0447
     1.0843   1.1144   1.1410   1.1743   1.1941   1.2345   1.2830   1.3218
     1.4162   1.4478   1.4782   1.5016   1.5439   1.5794   1.6126   1.6254
     1.6432   1.6678   1.6759   1.7047   1.7177   1.7534   1.7710   1.7961
     1.8028   1.8308   1.8498   1.8785   1.8995   1.9342   1.9778   2.0036
     2.0308   2.0533   2.0927   2.1229   2.1730   2.2410   2.2718   2.3769

          k = 0.3750-0.3750-0.3750 (132612 PWs)   bands (ev):

   -18.4956 -18.4327 -18.3972 -18.3888 -18.3881 -18.3868 -18.3849 -18.3799
   -18.3733 -18.3675 -18.3168 -18.3086 -18.2993 -18.2932 -18.2895 -18.2842
   -18.2778 -18.2623 -18.2559 -18.2532 -18.2447 -18.2420 -18.2418 -18.2382
   -18.2355 -18.2305 -18.2242 -18.2129 -18.1915 -18.1761 -18.1747 -18.1691
   -18.1569 -18.1555 -18.1483 -18.1467 -18.1464 -18.1359 -18.1331 -18.1248
   -18.1236 -18.1191 -18.1168 -18.0640 -18.0423 -18.0195 -18.0190 -18.0161
    -9.5436  -9.4645  -9.3212  -9.2990  -9.2544  -9.1818  -9.1259  -9.0468
    -9.0176  -8.9682  -8.9517  -8.9401  -8.9103  -8.8568  -8.8375  -8.8119
    -8.7873  -8.7389  -8.7215  -8.7026  -8.6183  -8.5741  -8.5509  -8.3322
    -5.2756  -5.2683  -5.2492  -5.2247  -5.2146  -5.1987  -5.1801  -5.1758
    -5.1692  -5.1646  -5.1567  -5.1481  -5.1469  -5.1446  -5.1365  -5.0932
    -5.0800  -5.0675  -5.0594  -5.0536  -5.0489  -4.9968  -4.9899  -4.9771
    -4.1273  -3.9743  -3.8869  -3.8091  -3.6569  -3.5421  -3.5198  -3.3224
    -0.4677  -0.4343  -0.4022  -0.3679  -0.2760  -0.2345  -0.1580  -0.1043
    -0.0799  -0.0020   0.0876   0.1786   0.2606   0.3407   0.3926   0.4180
     0.4602   0.5086   0.5358   0.5867   0.6309   0.6507   0.6820   0.7186
     0.7770   0.8528   0.8881   0.9466   0.9603   0.9873   1.0055   1.0525
     1.0742   1.0927   1.1183   1.1881   1.1971   1.2659   1.2720   1.3220
     1.4228   1.4566   1.4681   1.5064   1.5475   1.5875   1.6059   1.6358
     1.6505   1.6625   1.6806   1.6893   1.7243   1.7360   1.7570   1.7850
     1.8005   1.8294   1.8464   1.8716   1.8983   1.9362   1.9766   2.0072
     2.0340   2.0597   2.0999   2.1410   2.1768   2.2292   2.2757   2.3755

     highest occupied level (ev):     3.1888

!    total energy              =   -2256.27363220 Ry
     estimated scf accuracy    <          1.7E-11 Ry

     The total energy is the sum of the following terms:
     one-electron contribution =    -995.40369822 Ry
     hartree contribution      =     625.80659108 Ry
     xc contribution           =    -647.58260746 Ry
     ewald contribution        =   -1239.09391761 Ry

     convergence has been achieved in  16 iterations

     Forces acting on atoms (cartesian axes, Ry/au):

     atom    1 type  1   force =    -0.00003661    0.00111540    0.00252881
     atom    2 type  2   force =     0.02624757   -0.01734864    0.01075142
     atom    3 type  3   force =     0.01711062    0.02721569    0.02358388
     atom    4 type  3   force =    -0.00496061   -0.00110144    0.00650195
     atom    5 type  3   force =     0.00416333    0.02383050   -0.00284167
     atom    6 type  1   force =     0.00377648    0.00336731   -0.00223463
     atom    7 type  2   force =     0.01146315    0.00234629   -0.01527823
     atom    8 type  3   force =    -0.00496209   -0.00413559    0.00643225
     atom    9 type  3   force =     0.00663880    0.00044771   -0.01793499
     atom   10 type  3   force =    -0.00256957   -0.02650983    0.00624828
     atom   11 type  1   force =     0.00111324    0.00132507    0.00174398
     atom   12 type  2   force =    -0.01031833   -0.00330875   -0.01129729
     atom   13 type  3   force =     0.00568421    0.00175137    0.00042492
     atom   14 type  3   force =    -0.00160686   -0.00762528   -0.04841414
     atom   15 type  3   force =    -0.00098697   -0.00794726    0.00137417
     atom   16 type  1   force =     0.00071180   -0.02420373   -0.02657783
     atom   17 type  2   force =     0.02273337    0.00724119    0.04558478
     atom   18 type  3   force =     0.00007714   -0.00267584   -0.00381619
     atom   19 type  3   force =    -0.00147171   -0.00221736    0.01000531
     atom   20 type  3   force =     0.00051515    0.03012506    0.00573396
     atom   21 type  1   force =     0.00238062    0.00091263   -0.00067966
     atom   22 type  2   force =    -0.00717137    0.00753919    0.00008991
     atom   23 type  3   force =    -0.03503510   -0.00194376    0.00617152
     atom   24 type  3   force =     0.00527163    0.00229958   -0.01391064
     atom   25 type  3   force =    -0.00122070    0.00036578    0.00380615
     atom   26 type  1   force =    -0.00422209   -0.00325505   -0.00269861
     atom   27 type  2   force =    -0.02465681   -0.00823569    0.00762644
     atom   28 type  3   force =     0.01185107   -0.00083798   -0.00964170
     atom   29 type  3   force =    -0.00714961   -0.00444767    0.01928841
     atom   30 type  3   force =     0.00385165   -0.00770926   -0.00434331
     atom   31 type  1   force =    -0.00021595    0.00006578   -0.00067775
     atom   32 type  2   force =     0.00282027   -0.01502163   -0.00596816
     atom   33 type  3   force =    -0.00107361   -0.00157109    0.00213047
     atom   34 type  3   force =    -0.00104891   -0.00385497   -0.00080638
     atom   35 type  3   force =    -0.00128737    0.00674510   -0.00266731
     atom   36 type  1   force =    -0.00028883    0.00526701   -0.00283950
     atom   37 type  2   force =    -0.02429671    0.00850552    0.00294923
     atom   38 type  3   force =    -0.00581410   -0.00104948    0.00731476
     atom   39 type  3   force =     0.00868244    0.00798955    0.00229697
     atom   40 type  3   force =     0.00530140    0.00654459    0.00004042

     Total force =     0.131364     Total SCF correction =     0.000016


     Computing stress (Cartesian axis) and pressure

          total   stress  (Ry/bohr**3)                   (kbar)     P=       -5.72
  -0.00004817  -0.00000191   0.00000128           -7.09       -0.28        0.19
  -0.00000191  -0.00003190   0.00000589           -0.28       -4.69        0.87
   0.00000128   0.00000589  -0.00003661            0.19        0.87       -5.39

 
     init_run     :     19.91s CPU     16.95s WALL (       1 calls)
     electrons    :    212.32s CPU    223.09s WALL (       1 calls)
     forces       :      8.75s CPU      3.90s WALL (       1 calls)
     stress       :     31.22s CPU     30.31s WALL (       1 calls)

     Called by init_run:
     wfcinit      :     12.05s CPU     13.90s WALL (       1 calls)
                                       13.91s GPU  (       1 calls)
     potinit      :      4.59s CPU      1.40s WALL (       1 calls)
     hinit0       :      2.73s CPU      0.97s WALL (       1 calls)

     Called by electrons:
     c_bands      :    126.89s CPU    178.64s WALL (      17 calls)
     sum_band     :     22.85s CPU     21.95s WALL (      17 calls)
                                       21.95s GPU  (      17 calls)
     v_of_rho     :     57.76s CPU     17.34s WALL (      17 calls)
     mix_rho      :      6.75s CPU      5.26s WALL (      17 calls)

     Called by c_bands:
     init_us_2    :      2.30s CPU      3.12s WALL (     296 calls)
                                        3.11s GPU  (     296 calls)
     cegterg      :     84.13s CPU    133.08s WALL (     136 calls)

     Called by *egterg:
     cdiaghg      :     14.24s CPU     26.73s WALL (     682 calls)
                                       26.70s GPU  (     682 calls)
     h_psi        :     57.43s CPU     76.90s WALL (     698 calls)
                                       76.44s GPU  (     698 calls)
     g_psi        :      0.00s CPU      0.37s WALL (     554 calls)
                                        0.36s GPU  (     554 calls)

     Called by h_psi:
     h_psi:calbec :      0.32s CPU     10.26s WALL (     698 calls)
                                       10.25s GPU  (     698 calls)
     vloc_psi     :     42.01s CPU     56.44s WALL (     698 calls)
                                       55.49s GPU  (     698 calls)
     add_vuspsi   :      0.36s CPU     10.12s WALL (     698 calls)
                                       10.11s GPU  (     698 calls)

     General routines
     calbec       :      0.32s CPU      0.39s WALL (     738 calls)
     fft          :     27.15s CPU      6.92s WALL (     195 calls)
                                        0.00s GPU  (       6 calls)
     ffts         :      2.77s CPU      0.72s WALL (      17 calls)
     fftw         :      0.69s CPU     65.54s WALL (   10956 calls)
                                       48.97s GPU  (   10956 calls)
 
     Parallel routines
 
     PWSCF        :   4m32.83s CPU   4m34.99s WALL

 
   This run was terminated on:  21:24:27  22Apr2021            

=------------------------------------------------------------------------------=
   JOB DONE.
=------------------------------------------------------------------------------=
