
     Program PWSCF v.6.7MaX starts on 22Apr2021 at 21: 6:47 

     This program is part of the open-source Quantum ESPRESSO suite
     for quantum simulation of materials; please cite
         "P. Giannozzi et al., J. Phys.:Condens. Matter 21 395502 (2009);
         "P. Giannozzi et al., J. Phys.:Condens. Matter 29 465901 (2017);
         "P. Giannozzi et al., J. Chem. Phys. 152 154105 (2020);
          URL http://www.quantum-espresso.org", 
     in publications or presentations arising from this work. More details at
     http://www.quantum-espresso.org/quote

     Parallel version (MPI & OpenMP), running on      16 processor cores
     Number of MPI processes:                 4
     Threads/MPI process:                     4

     MPI processes distributed on     1 nodes
     K-points division:     npool     =       4
     Reading input from ESP_92.pwi
Warning: card &CELL ignored
Warning: card / ignored

     Current dimensions of program PWSCF are:
     Max number of different atomic species (ntypx) = 10
     Max number of k-points (npk) =  40000
     Max angular momentum in pseudopotentials (lmaxx) =  3
     Message from routine read_pp_mesh:
     mesh size missing, using the one in header
     Message from routine read_pp_mesh:
     mesh size missing, using the one in header
     Message from routine read_pp_mesh:
     mesh size missing, using the one in header

     Subspace diagonalization in iterative solution of the eigenvalue problem:
     a serial algorithm will be used

 
     G-vector sticks info
     --------------------
     sticks:   dense  smooth     PW     G-vecs:    dense   smooth      PW
     Sum       12589   12589   3289              1061107  1061107  140905
 
     Using Slab Decomposition
 


     bravais-lattice index     =            0
     lattice parameter (alat)  =      23.7585  a.u.
     unit-cell volume          =   13410.8736 (a.u.)^3
     number of atoms/cell      =           40
     number of atomic types    =            3
     number of electrons       =       352.00
     number of Kohn-Sham states=          176
     kinetic-energy cutoff     =      70.0000  Ry
     charge density cutoff     =     280.0000  Ry
     scf convergence threshold =      1.0E-10
     mixing beta               =       0.7000
     number of iterations used =            8  plain     mixing
     Exchange-correlation= PBESOL
                           (   1   4  10   8   0   0   0)

     GPU acceleration is ACTIVE.


     celldm(1)=  23.758500  celldm(2)=   0.000000  celldm(3)=   0.000000
     celldm(4)=   0.000000  celldm(5)=   0.000000  celldm(6)=   0.000000

     crystal axes: (cart. coord. in units of alat)
               a(1) = (   1.000000   0.000000   0.000000 )  
               a(2) = (   0.000000   1.000000   0.000000 )  
               a(3) = (   0.000000   0.000000   1.000000 )  

     reciprocal axes: (cart. coord. in units 2 pi/alat)
               b(1) = (  1.000000  0.000000  0.000000 )  
               b(2) = (  0.000000  1.000000  0.000000 )  
               b(3) = (  0.000000  0.000000  1.000000 )  


     PseudoPot. # 1 for Cs read from file:
     /m100/home/userexternal/lmonacel/espresso/pseudo/Cs-nc-pbesol.upf
     MD5 check sum: 9d2f2206a14dc5b3b3f3fbfae186bed4
     Pseudo is Norm-conserving + core correction, Zval =  9.0
     Generated using ONCVPSP code by D. R. Hamann
     Using radial grid of 2384 points,  8 beta functions with: 
                l(1) =   0
                l(2) =   0
                l(3) =   1
                l(4) =   1
                l(5) =   2
                l(6) =   2
                l(7) =   3
                l(8) =   3

     PseudoPot. # 2 for Sn read from file:
     /m100/home/userexternal/lmonacel/espresso/pseudo/Sn-nc-pbesol.upf
     MD5 check sum: c2995d571af40102bfea7461443d92cf
     Pseudo is Norm-conserving + core correction, Zval = 14.0
     Generated using ONCVPSP code by D. R. Hamann
     Using radial grid of 1628 points,  6 beta functions with: 
                l(1) =   0
                l(2) =   0
                l(3) =   1
                l(4) =   1
                l(5) =   2
                l(6) =   2

     PseudoPot. # 3 for I  read from file:
     /m100/home/userexternal/lmonacel/espresso/pseudo/I-nc-pbesol.upf
     MD5 check sum: 80ed5ceb2eb9c553cfb6760a299d9c5b
     Pseudo is Norm-conserving + core correction, Zval =  7.0
     Generated using ONCVPSP code by D. R. Hamann
     Using radial grid of 1182 points,  6 beta functions with: 
                l(1) =   0
                l(2) =   0
                l(3) =   1
                l(4) =   1
                l(5) =   2
                l(6) =   2

     atomic species   valence    mass     pseudopotential
        Cs             9.00   132.90545     Cs( 1.00)
        Sn            14.00   118.71000     Sn( 1.00)
        I              7.00   126.90447     I ( 1.00)

     No symmetry found



   Cartesian axes

     site n.     atom                  positions (alat units)
         1           Cs  tau(   1) = (   0.2223191   0.3063186   0.2631897  )
         2           Sn  tau(   2) = (  -0.0118487   0.0153036   0.0237622  )
         3           I   tau(   3) = (   0.2415051  -0.0124362   0.0000242  )
         4           I   tau(   4) = (   0.0069180   0.0007385   0.2593285  )
         5           I   tau(   5) = (  -0.0092360   0.2502095  -0.0336665  )
         6           Cs  tau(   6) = (   0.2146456   0.2310330   0.7366160  )
         7           Sn  tau(   7) = (  -0.0045508   0.0026181   0.5211070  )
         8           I   tau(   8) = (   0.2476483  -0.0070435   0.5264759  )
         9           I   tau(   9) = (  -0.0137569  -0.0205058   0.7621275  )
        10           I   tau(  10) = (   0.0079397   0.2535610   0.5403787  )
        11           Cs  tau(  11) = (   0.2570624   0.7340109   0.2901479  )
        12           Sn  tau(  12) = (   0.0060819   0.5028732  -0.0013173  )
        13           I   tau(  13) = (   0.2634264   0.4963921  -0.0122308  )
        14           I   tau(  14) = (   0.0419256   0.4835580   0.2464648  )
        15           I   tau(  15) = (   0.0193867   0.7524696   0.0049947  )
        16           Cs  tau(  16) = (   0.2384363   0.7520077   0.7608820  )
        17           Sn  tau(  17) = (   0.0073559   0.5017739   0.4990345  )
        18           I   tau(  18) = (   0.2564442   0.5164977   0.4773055  )
        19           I   tau(  19) = (   0.0302816   0.5121856   0.7453130  )
        20           I   tau(  20) = (  -0.0399901   0.7469016   0.4713032  )
        21           Cs  tau(  21) = (   0.7249738   0.2505056   0.2673986  )
        22           Sn  tau(  22) = (   0.4826046  -0.0090537   0.0013996  )
        23           I   tau(  23) = (   0.7535331   0.0050177   0.0335438  )
        24           I   tau(  24) = (   0.4909440  -0.0237055   0.2456617  )
        25           I   tau(  25) = (   0.5142882   0.2377519  -0.0223577  )
        26           Cs  tau(  26) = (   0.7194862   0.2552265   0.7497686  )
        27           Sn  tau(  27) = (   0.4979685   0.0071904   0.4998298  )
        28           I   tau(  28) = (   0.7440462   0.0255495   0.4961296  )
        29           I   tau(  29) = (   0.5276348   0.0075479   0.7432038  )
        30           I   tau(  30) = (   0.4842126   0.2399673   0.4849528  )
        31           Cs  tau(  31) = (   0.7364804   0.7617488   0.2383930  )
        32           Sn  tau(  32) = (   0.4974201   0.4862336  -0.0242098  )
        33           I   tau(  33) = (   0.7661848   0.5096600   0.0212445  )
        34           I   tau(  34) = (   0.4743763   0.4846773   0.2319751  )
        35           I   tau(  35) = (   0.5346822   0.7432862   0.0111364  )
        36           Cs  tau(  36) = (   0.7547039   0.7664090   0.7608771  )
        37           Sn  tau(  37) = (   0.5128432   0.5234133   0.4790591  )
        38           I   tau(  38) = (   0.7637472   0.4766332   0.4811667  )
        39           I   tau(  39) = (   0.5300515   0.4793693   0.7344775  )
        40           I   tau(  40) = (   0.5132780   0.7533568   0.4818418  )

     number of k points=    32
                       cart. coord. in units 2pi/alat
        k(    1) = (   0.1250000   0.1250000   0.1250000), wk =   0.0625000
        k(    2) = (   0.1250000   0.1250000   0.3750000), wk =   0.0625000
        k(    3) = (   0.1250000   0.3750000   0.3750000), wk =   0.0625000
        k(    4) = (   0.3750000   0.3750000   0.3750000), wk =   0.0625000
        k(    5) = (  -0.1250000  -0.1250000   0.1250000), wk =   0.0625000
        k(    6) = (  -0.1250000   0.1250000  -0.1250000), wk =   0.0625000
        k(    7) = (   0.1250000  -0.1250000  -0.1250000), wk =   0.0625000
        k(    8) = (  -0.1250000  -0.1250000   0.3750000), wk =   0.0625000
        k(    9) = (  -0.1250000   0.1250000  -0.3750000), wk =   0.0625000
        k(   10) = (   0.1250000  -0.1250000  -0.3750000), wk =   0.0625000
        k(   11) = (   0.3750000  -0.1250000   0.1250000), wk =   0.0625000
        k(   12) = (  -0.3750000  -0.1250000  -0.1250000), wk =   0.0625000
        k(   13) = (   0.3750000   0.1250000  -0.1250000), wk =   0.0625000
        k(   14) = (  -0.3750000   0.1250000   0.1250000), wk =   0.0625000
        k(   15) = (  -0.1250000   0.3750000   0.1250000), wk =   0.0625000
        k(   16) = (  -0.1250000  -0.3750000  -0.1250000), wk =   0.0625000
        k(   17) = (   0.1250000   0.3750000  -0.1250000), wk =   0.0625000
        k(   18) = (   0.1250000  -0.3750000   0.1250000), wk =   0.0625000
        k(   19) = (  -0.1250000  -0.3750000   0.3750000), wk =   0.0625000
        k(   20) = (  -0.1250000   0.3750000  -0.3750000), wk =   0.0625000
        k(   21) = (   0.1250000  -0.3750000  -0.3750000), wk =   0.0625000
        k(   22) = (   0.3750000   0.1250000  -0.3750000), wk =   0.0625000
        k(   23) = (  -0.3750000  -0.1250000  -0.3750000), wk =   0.0625000
        k(   24) = (   0.3750000  -0.1250000   0.3750000), wk =   0.0625000
        k(   25) = (  -0.3750000   0.1250000   0.3750000), wk =   0.0625000
        k(   26) = (   0.3750000  -0.3750000   0.1250000), wk =   0.0625000
        k(   27) = (  -0.3750000  -0.3750000  -0.1250000), wk =   0.0625000
        k(   28) = (   0.3750000   0.3750000  -0.1250000), wk =   0.0625000
        k(   29) = (  -0.3750000   0.3750000   0.1250000), wk =   0.0625000
        k(   30) = (  -0.3750000  -0.3750000   0.3750000), wk =   0.0625000
        k(   31) = (  -0.3750000   0.3750000  -0.3750000), wk =   0.0625000
        k(   32) = (   0.3750000  -0.3750000  -0.3750000), wk =   0.0625000

     Dense  grid:  1061107 G-vectors     FFT dimensions: ( 128, 128, 128)

     Estimated max dynamical RAM per process >       6.82 GB

     Estimated total dynamical RAM >      27.27 GB

     Initial potential from superposition of free atoms

     starting charge  351.69472, renormalised to  352.00000
     Starting wfcs are  208 randomized atomic wfcs

     total cpu time spent up to now is       17.9 secs

     Self-consistent Calculation

     iteration #  1     ecut=    70.00 Ry     beta= 0.70
     Davidson diagonalization with overlap
     ethr =  1.00E-02,  avg # of iterations =  2.0

     Threshold (ethr) on eigenvalues was too large:
     Diagonalizing with lowered threshold

     Davidson diagonalization with overlap
     ethr =  2.16E-04,  avg # of iterations =  4.0

     total cpu time spent up to now is       38.9 secs

     total energy              =   -2256.02650279 Ry
     estimated scf accuracy    <       0.66668323 Ry

     iteration #  2     ecut=    70.00 Ry     beta= 0.70
     Davidson diagonalization with overlap
     ethr =  1.89E-04,  avg # of iterations =  3.3

     total cpu time spent up to now is       51.7 secs

     total energy              =   -2256.23535786 Ry
     estimated scf accuracy    <       0.30003181 Ry

     iteration #  3     ecut=    70.00 Ry     beta= 0.70
     Davidson diagonalization with overlap
     ethr =  8.52E-05,  avg # of iterations =  2.3

     total cpu time spent up to now is       63.3 secs

     total energy              =   -2256.29281259 Ry
     estimated scf accuracy    <       0.01504699 Ry

     iteration #  4     ecut=    70.00 Ry     beta= 0.70
     Davidson diagonalization with overlap
     ethr =  4.27E-06,  avg # of iterations =  4.5

     total cpu time spent up to now is       77.2 secs

     total energy              =   -2256.29900031 Ry
     estimated scf accuracy    <       0.00515274 Ry

     iteration #  5     ecut=    70.00 Ry     beta= 0.70
     Davidson diagonalization with overlap
     ethr =  1.46E-06,  avg # of iterations =  3.9

     total cpu time spent up to now is       89.6 secs

     total energy              =   -2256.29997530 Ry
     estimated scf accuracy    <       0.00132398 Ry

     iteration #  6     ecut=    70.00 Ry     beta= 0.70
     Davidson diagonalization with overlap
     ethr =  3.76E-07,  avg # of iterations =  3.0

     total cpu time spent up to now is      101.6 secs

     total energy              =   -2256.30017675 Ry
     estimated scf accuracy    <       0.00017054 Ry

     iteration #  7     ecut=    70.00 Ry     beta= 0.70
     Davidson diagonalization with overlap
     ethr =  4.84E-08,  avg # of iterations =  4.5

     total cpu time spent up to now is      115.8 secs

     total energy              =   -2256.30024669 Ry
     estimated scf accuracy    <       0.00001652 Ry

     iteration #  8     ecut=    70.00 Ry     beta= 0.70
     Davidson diagonalization with overlap
     ethr =  4.69E-09,  avg # of iterations =  4.0

     total cpu time spent up to now is      129.8 secs

     total energy              =   -2256.30025289 Ry
     estimated scf accuracy    <       0.00000429 Ry

     iteration #  9     ecut=    70.00 Ry     beta= 0.70
     Davidson diagonalization with overlap
     ethr =  1.22E-09,  avg # of iterations =  4.1

     total cpu time spent up to now is      143.6 secs

     total energy              =   -2256.30025439 Ry
     estimated scf accuracy    <       0.00000070 Ry

     iteration # 10     ecut=    70.00 Ry     beta= 0.70
     Davidson diagonalization with overlap
     ethr =  2.00E-10,  avg # of iterations =  3.0

     total cpu time spent up to now is      157.0 secs

     total energy              =   -2256.30025464 Ry
     estimated scf accuracy    <       0.00000016 Ry

     iteration # 11     ecut=    70.00 Ry     beta= 0.70
     Davidson diagonalization with overlap
     ethr =  4.68E-11,  avg # of iterations =  5.0

     total cpu time spent up to now is      171.4 secs

     total energy              =   -2256.30025470 Ry
     estimated scf accuracy    <       0.00000002 Ry

     iteration # 12     ecut=    70.00 Ry     beta= 0.70
     Davidson diagonalization with overlap
     ethr =  5.84E-12,  avg # of iterations =  6.9

     total cpu time spent up to now is      189.1 secs

     total energy              =   -2256.30025472 Ry
     estimated scf accuracy    <          8.1E-09 Ry

     iteration # 13     ecut=    70.00 Ry     beta= 0.70
     Davidson diagonalization with overlap
     ethr =  2.30E-12,  avg # of iterations =  3.3

     total cpu time spent up to now is      201.7 secs

     total energy              =   -2256.30025472 Ry
     estimated scf accuracy    <          8.5E-10 Ry

     iteration # 14     ecut=    70.00 Ry     beta= 0.70
     Davidson diagonalization with overlap
     ethr =  2.41E-13,  avg # of iterations =  5.3

     total cpu time spent up to now is      217.3 secs

     total energy              =   -2256.30025472 Ry
     estimated scf accuracy    <          2.8E-10 Ry

     iteration # 15     ecut=    70.00 Ry     beta= 0.70
     Davidson diagonalization with overlap
     ethr =  1.00E-13,  avg # of iterations =  3.3

     total cpu time spent up to now is      229.5 secs

     End of self-consistent calculation

          k = 0.1250 0.1250 0.1250 (132670 PWs)   bands (ev):

   -18.5111 -18.4783 -18.4173 -18.4103 -18.4052 -18.3994 -18.3902 -18.3761
   -18.3204 -18.3142 -18.3125 -18.3096 -18.3075 -18.3022 -18.3019 -18.2996
   -18.2982 -18.2958 -18.2954 -18.2948 -18.2289 -18.2238 -18.2173 -18.2095
   -18.2075 -18.2074 -18.2029 -18.1925 -18.1920 -18.1910 -18.1903 -18.1896
   -18.1877 -18.1847 -18.1844 -18.1790 -18.1764 -18.1722 -18.1718 -18.1675
   -18.1663 -18.1591 -18.1521 -18.1121 -18.1066 -18.0978 -18.0904 -18.0804
    -9.5100  -9.3457  -9.2130  -9.2030  -9.1312  -9.0931  -9.0492  -9.0342
    -8.9904  -8.9585  -8.9401  -8.9055  -8.8883  -8.8761  -8.8615  -8.8334
    -8.8194  -8.7750  -8.7670  -8.7254  -8.7116  -8.6597  -8.6287  -8.5233
    -5.2852  -5.2686  -5.2627  -5.2437  -5.2349  -5.2273  -5.1539  -5.1403
    -5.1361  -5.1007  -5.0993  -5.0859  -5.0813  -5.0762  -5.0684  -5.0293
    -5.0047  -4.9915  -4.9882  -4.9836  -4.9707  -4.9684  -4.9650  -4.9519
    -4.4494  -3.9608  -3.9127  -3.8795  -3.3992  -3.3646  -3.3230  -2.7603
    -0.7861  -0.7100  -0.6298  -0.6011  -0.5768  -0.5329  -0.5157  -0.4745
    -0.4196  -0.3719  -0.2830  -0.1787   0.4346   0.4674   0.5024   0.6181
     0.6589   0.6775   0.7338   0.7742   0.8004   0.8937   0.9154   0.9393
     0.9833   1.0218   1.0748   1.0877   1.1329   1.1489   1.1764   1.1935
     1.2206   1.2417   1.2506   1.2755   1.3011   1.3245   1.3606   1.3644
     1.3911   1.4095   1.4382   1.4450   1.4727   1.4942   1.5193   1.5323
     1.5483   1.5774   1.6049   1.6193   1.6381   1.6476   1.6789   1.7118
     1.7241   1.7699   1.8099   1.9135   1.9634   2.0156   2.0597   2.0906
     2.1283   2.1421   2.2230   2.2613   2.6522   2.7086   2.7288   3.1436

          k = 0.1250 0.1250 0.3750 (132608 PWs)   bands (ev):

   -18.5111 -18.4783 -18.4173 -18.4103 -18.4052 -18.3994 -18.3902 -18.3761
   -18.3204 -18.3142 -18.3125 -18.3096 -18.3075 -18.3022 -18.3019 -18.2996
   -18.2982 -18.2958 -18.2954 -18.2948 -18.2289 -18.2238 -18.2173 -18.2095
   -18.2075 -18.2074 -18.2029 -18.1925 -18.1919 -18.1910 -18.1903 -18.1896
   -18.1877 -18.1847 -18.1844 -18.1790 -18.1764 -18.1722 -18.1718 -18.1675
   -18.1663 -18.1591 -18.1521 -18.1121 -18.1066 -18.0978 -18.0904 -18.0804
    -9.5060  -9.3263  -9.2521  -9.1820  -9.1282  -9.1088  -9.0744  -9.0380
    -8.9910  -8.9684  -8.9282  -8.9040  -8.8938  -8.8577  -8.8402  -8.8272
    -8.8118  -8.7654  -8.7549  -8.7284  -8.7190  -8.6772  -8.6365  -8.5241
    -5.2851  -5.2685  -5.2627  -5.2436  -5.2348  -5.2270  -5.1538  -5.1404
    -5.1360  -5.1007  -5.0988  -5.0856  -5.0818  -5.0764  -5.0691  -5.0300
    -5.0047  -4.9906  -4.9878  -4.9837  -4.9710  -4.9688  -4.9654  -4.9522
    -4.3303  -4.0776  -3.8242  -3.7696  -3.5695  -3.5145  -3.2284  -2.9724
    -0.7872  -0.6860  -0.5825  -0.5517  -0.5215  -0.4957  -0.4175  -0.3463
    -0.1007  -0.0806  -0.0104   0.0727   0.4040   0.4336   0.4935   0.5139
     0.5687   0.6005   0.6344   0.6625   0.6947   0.7450   0.7726   0.7958
     0.8794   0.8972   0.9653   1.0180   1.0662   1.0931   1.1661   1.1740
     1.1984   1.2317   1.2506   1.2988   1.3070   1.3292   1.3534   1.3829
     1.3933   1.4282   1.4504   1.4651   1.4831   1.5165   1.5295   1.5570
     1.5818   1.6097   1.6427   1.6523   1.6612   1.6764   1.7141   1.7281
     1.7643   1.8020   1.8272   1.8466   1.9225   1.9393   1.9690   1.9945
     2.0422   2.1260   2.1708   2.2654   2.4109   2.4619   2.6962   2.9057

          k = 0.1250 0.3750 0.3750 (132616 PWs)   bands (ev):

   -18.5111 -18.4783 -18.4173 -18.4103 -18.4052 -18.3994 -18.3902 -18.3761
   -18.3204 -18.3142 -18.3125 -18.3096 -18.3075 -18.3022 -18.3019 -18.2996
   -18.2982 -18.2959 -18.2953 -18.2949 -18.2289 -18.2237 -18.2173 -18.2095
   -18.2075 -18.2074 -18.2029 -18.1925 -18.1919 -18.1910 -18.1903 -18.1896
   -18.1877 -18.1847 -18.1844 -18.1790 -18.1764 -18.1722 -18.1718 -18.1675
   -18.1663 -18.1591 -18.1521 -18.1121 -18.1066 -18.0978 -18.0904 -18.0804
    -9.5000  -9.3296  -9.2436  -9.1839  -9.1405  -9.1123  -9.0797  -9.0475
    -8.9933  -8.9763  -8.9178  -8.9070  -8.8832  -8.8575  -8.8402  -8.8259
    -8.7932  -8.7568  -8.7543  -8.7326  -8.7200  -8.6743  -8.6435  -8.5307
    -5.2852  -5.2685  -5.2626  -5.2436  -5.2349  -5.2271  -5.1536  -5.1401
    -5.1358  -5.1017  -5.0982  -5.0846  -5.0817  -5.0783  -5.0683  -5.0299
    -5.0046  -4.9910  -4.9881  -4.9836  -4.9705  -4.9690  -4.9653  -4.9525
    -4.2103  -3.9980  -3.9394  -3.7429  -3.6431  -3.4351  -3.3739  -3.1529
    -0.7170  -0.5859  -0.5647  -0.5324  -0.3973  -0.2788  -0.1654  -0.1250
    -0.0658  -0.0174   0.0989   0.1637   0.3313   0.4183   0.4597   0.4903
     0.5239   0.5687   0.5881   0.6178   0.6372   0.6679   0.7039   0.7534
     0.8130   0.8768   0.9107   0.9426   0.9773   0.9999   1.0304   1.0983
     1.1731   1.1900   1.2117   1.2625   1.2794   1.3050   1.3323   1.3592
     1.3925   1.4052   1.4349   1.4604   1.5267   1.5454   1.5711   1.5875
     1.6025   1.6260   1.6601   1.6718   1.6889   1.7298   1.7621   1.7791
     1.8065   1.8137   1.8506   1.8582   1.8833   1.9046   1.9512   1.9824
     2.0068   2.0383   2.0646   2.1637   2.2734   2.3801   2.4836   2.6079

          k = 0.3750 0.3750 0.3750 (132612 PWs)   bands (ev):

   -18.5111 -18.4783 -18.4173 -18.4103 -18.4052 -18.3994 -18.3902 -18.3761
   -18.3204 -18.3142 -18.3125 -18.3096 -18.3075 -18.3022 -18.3019 -18.2996
   -18.2982 -18.2959 -18.2953 -18.2949 -18.2289 -18.2237 -18.2173 -18.2095
   -18.2075 -18.2074 -18.2029 -18.1925 -18.1919 -18.1910 -18.1903 -18.1896
   -18.1877 -18.1847 -18.1844 -18.1790 -18.1764 -18.1722 -18.1718 -18.1675
   -18.1663 -18.1591 -18.1521 -18.1121 -18.1066 -18.0978 -18.0904 -18.0804
    -9.4957  -9.3265  -9.2287  -9.1854  -9.1558  -9.1154  -9.0873  -9.0618
    -9.0196  -8.9788  -8.9261  -8.9025  -8.8494  -8.8445  -8.8352  -8.8016
    -8.7892  -8.7586  -8.7506  -8.7392  -8.7218  -8.6926  -8.6420  -8.5351
    -5.2852  -5.2685  -5.2624  -5.2437  -5.2350  -5.2272  -5.1540  -5.1402
    -5.1360  -5.1017  -5.0980  -5.0845  -5.0815  -5.0781  -5.0681  -5.0296
    -5.0044  -4.9910  -4.9883  -4.9841  -4.9709  -4.9684  -4.9651  -4.9519
    -4.0864  -3.9205  -3.8240  -3.7765  -3.6430  -3.5904  -3.5390  -3.3494
    -0.5244  -0.3899  -0.2949  -0.2494  -0.1887  -0.1731  -0.1279  -0.1121
    -0.0635   0.0278   0.0613   0.2281   0.2905   0.3428   0.3774   0.4215
     0.4697   0.5045   0.5456   0.5841   0.6020   0.6118   0.6590   0.7297
     0.7953   0.8810   0.9037   0.9295   0.9589   1.0194   1.0375   1.0630
     1.0951   1.1221   1.1500   1.1801   1.1951   1.2169   1.2534   1.2969
     1.3238   1.3899   1.4434   1.4777   1.5101   1.5733   1.5972   1.6261
     1.6394   1.6536   1.6903   1.7057   1.7397   1.7667   1.7866   1.7988
     1.8151   1.8246   1.8375   1.8516   1.8758   1.9035   1.9237   1.9420
     1.9745   1.9870   2.0172   2.0686   2.1305   2.1687   2.1906   2.3067

          k =-0.1250-0.1250 0.1250 (132670 PWs)   bands (ev):

   -18.5111 -18.4783 -18.4173 -18.4103 -18.4052 -18.3994 -18.3902 -18.3761
   -18.3204 -18.3142 -18.3125 -18.3096 -18.3075 -18.3022 -18.3019 -18.2996
   -18.2983 -18.2958 -18.2954 -18.2948 -18.2289 -18.2238 -18.2173 -18.2095
   -18.2075 -18.2074 -18.2029 -18.1925 -18.1920 -18.1910 -18.1903 -18.1896
   -18.1877 -18.1847 -18.1844 -18.1790 -18.1764 -18.1722 -18.1718 -18.1675
   -18.1663 -18.1591 -18.1521 -18.1121 -18.1066 -18.0978 -18.0904 -18.0804
    -9.5100  -9.3442  -9.2259  -9.1945  -9.1210  -9.0995  -9.0535  -9.0250
    -8.9890  -8.9671  -8.9379  -8.9091  -8.9015  -8.8693  -8.8568  -8.8229
    -8.8173  -8.7828  -8.7665  -8.7264  -8.7119  -8.6599  -8.6281  -8.5233
    -5.2853  -5.2686  -5.2627  -5.2438  -5.2349  -5.2272  -5.1539  -5.1402
    -5.1362  -5.1010  -5.0986  -5.0861  -5.0815  -5.0765  -5.0681  -5.0293
    -5.0047  -4.9907  -4.9884  -4.9845  -4.9709  -4.9681  -4.9647  -4.9519
    -4.4489  -3.9666  -3.9048  -3.8817  -3.4083  -3.3689  -3.3092  -2.7604
    -0.7724  -0.7225  -0.6477  -0.6296  -0.5926  -0.5261  -0.5013  -0.4338
    -0.4000  -0.3801  -0.2873  -0.1809   0.4349   0.4690   0.5051   0.6127
     0.6543   0.6898   0.7297   0.7814   0.7989   0.8653   0.9060   0.9428
     0.9913   1.0317   1.0841   1.0903   1.1248   1.1490   1.1701   1.1916
     1.2204   1.2257   1.2589   1.2866   1.3064   1.3346   1.3484   1.3702
     1.3923   1.4154   1.4292   1.4491   1.4655   1.4938   1.5089   1.5350
     1.5499   1.5784   1.5952   1.6162   1.6331   1.6541   1.6850   1.7084
     1.7207   1.7709   1.8110   1.9310   1.9504   2.0254   2.0617   2.0943
     2.1236   2.1407   2.2187   2.2590   2.6197   2.7072   2.7787   3.1500

          k =-0.1250 0.1250-0.1250 (132670 PWs)   bands (ev):

   -18.5111 -18.4783 -18.4173 -18.4103 -18.4052 -18.3994 -18.3902 -18.3761
   -18.3204 -18.3142 -18.3125 -18.3096 -18.3075 -18.3022 -18.3019 -18.2996
   -18.2983 -18.2958 -18.2954 -18.2948 -18.2289 -18.2238 -18.2173 -18.2095
   -18.2075 -18.2074 -18.2029 -18.1925 -18.1920 -18.1910 -18.1903 -18.1896
   -18.1877 -18.1847 -18.1844 -18.1790 -18.1764 -18.1722 -18.1718 -18.1675
   -18.1663 -18.1591 -18.1521 -18.1121 -18.1066 -18.0978 -18.0904 -18.0804
    -9.5102  -9.3431  -9.2234  -9.2028  -9.1179  -9.0868  -9.0597  -9.0393
    -8.9813  -8.9603  -8.9437  -8.9120  -8.8917  -8.8728  -8.8553  -8.8323
    -8.8171  -8.7786  -8.7643  -8.7261  -8.7126  -8.6605  -8.6286  -8.5230
    -5.2852  -5.2686  -5.2627  -5.2438  -5.2348  -5.2273  -5.1539  -5.1402
    -5.1362  -5.1010  -5.0987  -5.0861  -5.0816  -5.0765  -5.0680  -5.0291
    -5.0048  -4.9910  -4.9883  -4.9844  -4.9708  -4.9683  -4.9650  -4.9515
    -4.4487  -3.9602  -3.9125  -3.8816  -3.3983  -3.3778  -3.3099  -2.7593
    -0.8031  -0.7073  -0.6525  -0.6062  -0.5697  -0.5433  -0.5033  -0.4423
    -0.4055  -0.3788  -0.2860  -0.1707   0.4282   0.4728   0.5081   0.6189
     0.6439   0.6912   0.7368   0.7641   0.7844   0.8700   0.9243   0.9612
     0.9886   1.0162   1.0650   1.0905   1.1191   1.1590   1.1700   1.1905
     1.2205   1.2462   1.2607   1.2872   1.3072   1.3226   1.3453   1.3612
     1.3963   1.4181   1.4280   1.4474   1.4770   1.4969   1.5124   1.5317
     1.5528   1.5814   1.6008   1.6128   1.6257   1.6590   1.6790   1.6975
     1.7225   1.7675   1.8114   1.9036   1.9767   2.0335   2.0582   2.0931
     2.1214   2.1537   2.2221   2.2536   2.6341   2.6839   2.7871   3.1483

          k = 0.1250-0.1250-0.1250 (132670 PWs)   bands (ev):

   -18.5111 -18.4783 -18.4173 -18.4103 -18.4052 -18.3994 -18.3902 -18.3761
   -18.3204 -18.3142 -18.3125 -18.3096 -18.3075 -18.3022 -18.3019 -18.2996
   -18.2982 -18.2958 -18.2954 -18.2948 -18.2289 -18.2238 -18.2173 -18.2095
   -18.2075 -18.2074 -18.2029 -18.1925 -18.1920 -18.1910 -18.1903 -18.1896
   -18.1877 -18.1847 -18.1844 -18.1790 -18.1764 -18.1722 -18.1718 -18.1675
   -18.1663 -18.1591 -18.1521 -18.1121 -18.1066 -18.0978 -18.0904 -18.0804
    -9.5103  -9.3428  -9.2256  -9.1992  -9.1239  -9.0894  -9.0534  -9.0292
    -8.9920  -8.9598  -8.9433  -8.9116  -8.8911  -8.8758  -8.8592  -8.8259
    -8.8149  -8.7805  -8.7653  -8.7265  -8.7119  -8.6599  -8.6290  -8.5231
    -5.2852  -5.2686  -5.2627  -5.2438  -5.2349  -5.2272  -5.1539  -5.1403
    -5.1361  -5.1007  -5.0990  -5.0858  -5.0815  -5.0764  -5.0685  -5.0292
    -5.0047  -4.9914  -4.9884  -4.9837  -4.9709  -4.9682  -4.9651  -4.9515
    -4.4492  -3.9523  -3.9164  -3.8861  -3.3954  -3.3669  -3.3233  -2.7595
    -0.7767  -0.7157  -0.6467  -0.6193  -0.5666  -0.5340  -0.4902  -0.4684
    -0.4341  -0.3631  -0.2954  -0.1686   0.4338   0.4690   0.5043   0.6185
     0.6576   0.6836   0.7446   0.7679   0.7911   0.8665   0.9067   0.9453
     1.0152   1.0514   1.0633   1.0964   1.1315   1.1452   1.1616   1.1774
     1.2070   1.2225   1.2585   1.2718   1.3123   1.3336   1.3521   1.3742
     1.3971   1.4241   1.4365   1.4651   1.4760   1.4858   1.5154   1.5314
     1.5423   1.5699   1.5963   1.6094   1.6378   1.6433   1.6908   1.7160
     1.7263   1.7681   1.8053   1.9186   1.9578   2.0253   2.0496   2.0916
     2.1376   2.1528   2.2150   2.2441   2.6420   2.6888   2.7720   3.1467

          k =-0.1250-0.1250 0.3750 (132608 PWs)   bands (ev):

   -18.5111 -18.4783 -18.4173 -18.4103 -18.4052 -18.3994 -18.3902 -18.3761
   -18.3204 -18.3142 -18.3125 -18.3096 -18.3075 -18.3022 -18.3019 -18.2996
   -18.2982 -18.2958 -18.2954 -18.2948 -18.2289 -18.2238 -18.2173 -18.2095
   -18.2075 -18.2074 -18.2029 -18.1925 -18.1919 -18.1910 -18.1903 -18.1896
   -18.1877 -18.1847 -18.1844 -18.1790 -18.1764 -18.1722 -18.1718 -18.1675
   -18.1663 -18.1591 -18.1521 -18.1121 -18.1066 -18.0978 -18.0904 -18.0804
    -9.5060  -9.3231  -9.2607  -9.1738  -9.1343  -9.1034  -9.0761  -9.0344
    -8.9886  -8.9736  -8.9286  -8.9098  -8.8981  -8.8567  -8.8357  -8.8192
    -8.8075  -8.7731  -8.7548  -8.7274  -8.7214  -8.6772  -8.6358  -8.5241
    -5.2852  -5.2685  -5.2626  -5.2437  -5.2348  -5.2269  -5.1537  -5.1403
    -5.1362  -5.1009  -5.0982  -5.0858  -5.0820  -5.0768  -5.0688  -5.0301
    -5.0047  -4.9899  -4.9876  -4.9851  -4.9711  -4.9685  -4.9651  -4.9521
    -4.3289  -4.0807  -3.8219  -3.7675  -3.5734  -3.5177  -3.2216  -2.9742
    -0.7830  -0.6895  -0.5943  -0.5645  -0.5305  -0.4939  -0.3960  -0.3432
    -0.1199  -0.0549   0.0063   0.0750   0.4095   0.4468   0.4766   0.5032
     0.5774   0.5965   0.6192   0.6797   0.6974   0.7179   0.7691   0.7920
     0.8792   0.9051   0.9539   1.0261   1.0515   1.1050   1.1651   1.1858
     1.2136   1.2278   1.2375   1.2895   1.3217   1.3456   1.3555   1.3749
     1.3997   1.4189   1.4385   1.4714   1.4861   1.5075   1.5383   1.5572
     1.5808   1.5990   1.6111   1.6504   1.6775   1.6884   1.7095   1.7379
     1.7578   1.7913   1.8167   1.8638   1.9315   1.9531   1.9670   1.9942
     2.0416   2.1348   2.1629   2.2493   2.4141   2.4565   2.7226   2.9006

          k =-0.1250 0.1250-0.3750 (132608 PWs)   bands (ev):

   -18.5111 -18.4783 -18.4173 -18.4103 -18.4052 -18.3994 -18.3902 -18.3761
   -18.3204 -18.3142 -18.3125 -18.3096 -18.3075 -18.3022 -18.3019 -18.2996
   -18.2982 -18.2958 -18.2954 -18.2948 -18.2289 -18.2238 -18.2173 -18.2095
   -18.2075 -18.2074 -18.2029 -18.1925 -18.1919 -18.1910 -18.1903 -18.1896
   -18.1877 -18.1847 -18.1844 -18.1790 -18.1764 -18.1722 -18.1718 -18.1675
   -18.1663 -18.1591 -18.1521 -18.1121 -18.1066 -18.0978 -18.0904 -18.0804
    -9.5061  -9.3233  -9.2560  -9.1866  -9.1275  -9.0990  -9.0707  -9.0480
    -8.9823  -8.9727  -8.9359  -8.9056  -8.8901  -8.8549  -8.8417  -8.8294
    -8.8047  -8.7685  -8.7535  -8.7268  -8.7220  -8.6778  -8.6366  -8.5238
    -5.2851  -5.2685  -5.2626  -5.2437  -5.2347  -5.2270  -5.1537  -5.1402
    -5.1361  -5.1010  -5.0982  -5.0859  -5.0821  -5.0768  -5.0687  -5.0299
    -5.0048  -4.9899  -4.9877  -4.9850  -4.9711  -4.9688  -4.9653  -4.9518
    -4.3286  -4.0806  -3.8144  -3.7776  -3.5656  -3.5241  -3.2215  -2.9730
    -0.7982  -0.6805  -0.5915  -0.5647  -0.5300  -0.4867  -0.4121  -0.3350
    -0.0936  -0.0712   0.0069   0.0801   0.4034   0.4253   0.4906   0.5060
     0.5641   0.6004   0.6208   0.6716   0.7016   0.7313   0.7616   0.7983
     0.8759   0.9051   0.9641   1.0095   1.0585   1.1187   1.1533   1.1674
     1.2048   1.2237   1.2755   1.2889   1.3112   1.3341   1.3606   1.3663
     1.4101   1.4207   1.4487   1.4720   1.4913   1.5157   1.5300   1.5447
     1.5783   1.6108   1.6251   1.6436   1.6615   1.6822   1.7115   1.7284
     1.7565   1.7931   1.8280   1.8562   1.9410   1.9497   1.9642   2.0011
     2.0334   2.1419   2.1557   2.2771   2.3960   2.4619   2.7119   2.9088

          k = 0.1250-0.1250-0.3750 (132608 PWs)   bands (ev):

   -18.5111 -18.4783 -18.4173 -18.4103 -18.4052 -18.3994 -18.3902 -18.3761
   -18.3204 -18.3142 -18.3125 -18.3096 -18.3075 -18.3022 -18.3019 -18.2996
   -18.2982 -18.2958 -18.2954 -18.2948 -18.2289 -18.2238 -18.2173 -18.2095
   -18.2075 -18.2074 -18.2029 -18.1925 -18.1919 -18.1910 -18.1903 -18.1896
   -18.1877 -18.1847 -18.1844 -18.1790 -18.1764 -18.1722 -18.1718 -18.1675
   -18.1663 -18.1591 -18.1521 -18.1121 -18.1066 -18.0978 -18.0904 -18.0804
    -9.5062  -9.3227  -9.2574  -9.1830  -9.1337  -9.1035  -9.0627  -9.0417
    -8.9931  -8.9657  -8.9372  -8.9079  -8.8906  -8.8629  -8.8329  -8.8241
    -8.8086  -8.7673  -8.7563  -8.7289  -8.7191  -8.6773  -8.6370  -8.5239
    -5.2851  -5.2685  -5.2626  -5.2437  -5.2348  -5.2270  -5.1537  -5.1403
    -5.1361  -5.1007  -5.0986  -5.0856  -5.0819  -5.0766  -5.0692  -5.0300
    -5.0048  -4.9905  -4.9879  -4.9841  -4.9713  -4.9686  -4.9654  -4.9518
    -4.3300  -4.0767  -3.8172  -3.7804  -3.5643  -3.5187  -3.2265  -2.9722
    -0.7846  -0.6869  -0.5892  -0.5597  -0.5339  -0.4857  -0.4035  -0.3392
    -0.1196  -0.0661  -0.0161   0.0733   0.4067   0.4523   0.4827   0.5038
     0.5786   0.6075   0.6373   0.6650   0.6921   0.7413   0.7521   0.8073
     0.8778   0.9150   0.9667   1.0064   1.0569   1.1009   1.1411   1.1716
     1.2136   1.2169   1.2474   1.2954   1.3043   1.3363   1.3535   1.3919
     1.3992   1.4422   1.4544   1.4757   1.5013   1.5141   1.5281   1.5489
     1.5717   1.5921   1.6188   1.6579   1.6649   1.6834   1.7088   1.7437
     1.7675   1.7898   1.8142   1.8627   1.9168   1.9361   1.9700   1.9972
     2.0510   2.1341   2.1832   2.2228   2.4299   2.4574   2.7012   2.9119

          k = 0.3750-0.1250 0.1250 (132608 PWs)   bands (ev):

   -18.5111 -18.4783 -18.4173 -18.4103 -18.4052 -18.3994 -18.3902 -18.3761
   -18.3204 -18.3142 -18.3125 -18.3096 -18.3075 -18.3022 -18.3019 -18.2996
   -18.2982 -18.2958 -18.2954 -18.2948 -18.2289 -18.2237 -18.2173 -18.2095
   -18.2075 -18.2074 -18.2029 -18.1925 -18.1920 -18.1910 -18.1903 -18.1896
   -18.1877 -18.1847 -18.1844 -18.1790 -18.1763 -18.1722 -18.1718 -18.1675
   -18.1663 -18.1591 -18.1521 -18.1121 -18.1066 -18.0978 -18.0904 -18.0804
    -9.5033  -9.3470  -9.2173  -9.1956  -9.1211  -9.1001  -9.0855  -9.0352
    -8.9869  -8.9785  -8.9496  -8.9138  -8.8792  -8.8585  -8.8432  -8.8240
    -8.7917  -8.7677  -8.7595  -8.7319  -8.7155  -8.6825  -8.6271  -8.5289
    -5.2851  -5.2686  -5.2625  -5.2437  -5.2349  -5.2272  -5.1538  -5.1401
    -5.1360  -5.1010  -5.0987  -5.0863  -5.0817  -5.0767  -5.0682  -5.0289
    -5.0049  -4.9908  -4.9881  -4.9841  -4.9713  -4.9685  -4.9648  -4.9518
    -4.3169  -4.0957  -3.8141  -3.7591  -3.5813  -3.5152  -3.2391  -2.9846
    -0.7809  -0.6413  -0.6115  -0.5625  -0.5328  -0.4515  -0.3505  -0.2642
    -0.1480  -0.0921  -0.0133   0.0226   0.3622   0.4833   0.4963   0.5402
     0.5690   0.5872   0.6206   0.6480   0.6848   0.7097   0.7623   0.7866
     0.8787   0.8917   0.9439   1.0455   1.0885   1.1072   1.1247   1.1803
     1.2134   1.2414   1.2493   1.2919   1.3158   1.3287   1.3559   1.3755
     1.4005   1.4144   1.4407   1.4666   1.4818   1.5077   1.5400   1.5624
     1.5715   1.5912   1.6051   1.6493   1.6674   1.6864   1.7000   1.7217
     1.7485   1.7704   1.8051   1.8642   1.8908   1.9368   1.9980   2.0590
     2.0695   2.0939   2.2030   2.2523   2.3690   2.4735   2.7339   2.8941

          k =-0.3750-0.1250-0.1250 (132608 PWs)   bands (ev):

   -18.5111 -18.4783 -18.4173 -18.4103 -18.4052 -18.3994 -18.3902 -18.3761
   -18.3204 -18.3142 -18.3125 -18.3096 -18.3075 -18.3022 -18.3019 -18.2996
   -18.2982 -18.2958 -18.2954 -18.2948 -18.2289 -18.2237 -18.2173 -18.2095
   -18.2075 -18.2074 -18.2029 -18.1925 -18.1920 -18.1910 -18.1903 -18.1896
   -18.1877 -18.1847 -18.1844 -18.1790 -18.1763 -18.1722 -18.1718 -18.1675
   -18.1663 -18.1591 -18.1521 -18.1121 -18.1066 -18.0978 -18.0904 -18.0804
    -9.5031  -9.3494  -9.2122  -9.1868  -9.1370  -9.1135  -9.0691  -9.0299
    -8.9930  -8.9831  -8.9435  -8.9067  -8.8816  -8.8582  -8.8484  -8.8241
    -8.7888  -8.7710  -8.7612  -8.7324  -8.7129  -8.6813  -8.6271  -8.5292
    -5.2851  -5.2686  -5.2625  -5.2436  -5.2350  -5.2272  -5.1538  -5.1403
    -5.1359  -5.1008  -5.0993  -5.0861  -5.0814  -5.0764  -5.0685  -5.0290
    -5.0049  -4.9912  -4.9881  -4.9834  -4.9713  -4.9685  -4.9648  -4.9522
    -4.3177  -4.0983  -3.7953  -3.7734  -3.5650  -3.5337  -3.2370  -2.9866
    -0.7661  -0.6514  -0.5763  -0.5576  -0.5369  -0.4845  -0.3669  -0.2415
    -0.1645  -0.1010  -0.0172   0.0194   0.3740   0.4722   0.4959   0.5450
     0.5626   0.5888   0.6170   0.6550   0.6960   0.7124   0.7717   0.8000
     0.8620   0.8841   0.9386   1.0680   1.0836   1.1007   1.1490   1.1891
     1.2179   1.2346   1.2495   1.2731   1.2901   1.3324   1.3641   1.3785
     1.3992   1.4094   1.4384   1.4463   1.4920   1.5102   1.5445   1.5576
     1.5763   1.6018   1.6234   1.6422   1.6640   1.6852   1.7137   1.7282
     1.7466   1.7720   1.7961   1.8594   1.8981   1.9249   1.9981   2.0537
     2.0650   2.0898   2.2158   2.2490   2.4041   2.4342   2.7224   2.8911

          k = 0.3750 0.1250-0.1250 (132608 PWs)   bands (ev):

   -18.5111 -18.4783 -18.4173 -18.4103 -18.4052 -18.3994 -18.3902 -18.3761
   -18.3204 -18.3142 -18.3125 -18.3096 -18.3075 -18.3022 -18.3019 -18.2996
   -18.2982 -18.2958 -18.2954 -18.2948 -18.2289 -18.2237 -18.2173 -18.2095
   -18.2075 -18.2074 -18.2029 -18.1925 -18.1920 -18.1910 -18.1903 -18.1896
   -18.1877 -18.1847 -18.1844 -18.1790 -18.1763 -18.1722 -18.1718 -18.1675
   -18.1663 -18.1591 -18.1521 -18.1121 -18.1066 -18.0978 -18.0904 -18.0804
    -9.5031  -9.3482  -9.2207  -9.1810  -9.1363  -9.1104  -9.0721  -9.0233
    -8.9934  -8.9814  -8.9516  -8.9153  -8.8796  -8.8556  -8.8458  -8.8163
    -8.7919  -8.7684  -8.7633  -8.7352  -8.7137  -8.6811  -8.6266  -8.5292
    -5.2852  -5.2686  -5.2625  -5.2437  -5.2350  -5.2272  -5.1538  -5.1402
    -5.1361  -5.1010  -5.0986  -5.0862  -5.0816  -5.0768  -5.0682  -5.0291
    -5.0048  -4.9905  -4.9883  -4.9842  -4.9714  -4.9683  -4.9646  -4.9522
    -4.3171  -4.0972  -3.8061  -3.7651  -3.5773  -3.5214  -3.2354  -2.9870
    -0.7693  -0.6383  -0.6074  -0.5747  -0.5452  -0.4502  -0.3417  -0.2530
    -0.1617  -0.0963  -0.0127   0.0079   0.3923   0.4732   0.4971   0.5402
     0.5603   0.5976   0.6100   0.6359   0.6952   0.7107   0.7577   0.8142
     0.8534   0.8947   0.9584   1.0609   1.0844   1.0952   1.1172   1.1888
     1.2132   1.2386   1.2543   1.2904   1.3036   1.3341   1.3669   1.3777
     1.3954   1.4271   1.4406   1.4601   1.4678   1.4926   1.5283   1.5603
     1.5668   1.5904   1.6295   1.6549   1.6620   1.6820   1.6944   1.7364
     1.7591   1.7772   1.8102   1.8582   1.9068   1.9191   1.9968   2.0388
     2.0720   2.0930   2.2023   2.2498   2.3826   2.4669   2.7361   2.8943

          k =-0.3750 0.1250 0.1250 (132608 PWs)   bands (ev):

   -18.5111 -18.4783 -18.4173 -18.4103 -18.4052 -18.3994 -18.3902 -18.3761
   -18.3204 -18.3142 -18.3125 -18.3096 -18.3075 -18.3022 -18.3019 -18.2996
   -18.2982 -18.2958 -18.2954 -18.2948 -18.2289 -18.2237 -18.2173 -18.2095
   -18.2075 -18.2074 -18.2029 -18.1925 -18.1920 -18.1910 -18.1903 -18.1896
   -18.1877 -18.1847 -18.1844 -18.1790 -18.1763 -18.1722 -18.1718 -18.1675
   -18.1663 -18.1591 -18.1521 -18.1121 -18.1066 -18.0978 -18.0904 -18.0804
    -9.5034  -9.3464  -9.2259  -9.1800  -9.1367  -9.0955  -9.0849  -9.0226
    -8.9972  -8.9756  -8.9541  -8.9101  -8.8845  -8.8582  -8.8454  -8.8171
    -8.7865  -8.7714  -8.7629  -8.7328  -8.7149  -8.6812  -8.6274  -8.5290
    -5.2851  -5.2685  -5.2624  -5.2437  -5.2350  -5.2272  -5.1538  -5.1402
    -5.1359  -5.1008  -5.0990  -5.0860  -5.0816  -5.0766  -5.0686  -5.0289
    -5.0049  -4.9911  -4.9883  -4.9835  -4.9716  -4.9684  -4.9649  -4.9518
    -4.3176  -4.0960  -3.8045  -3.7685  -3.5695  -3.5269  -3.2384  -2.9853
    -0.7608  -0.6438  -0.5978  -0.5671  -0.5370  -0.4790  -0.3377  -0.2839
    -0.1468  -0.0953  -0.0153   0.0254   0.3835   0.4731   0.5005   0.5373
     0.5713   0.5868   0.6170   0.6242   0.6930   0.7158   0.7617   0.7991
     0.8642   0.9108   0.9521   1.0559   1.0884   1.0997   1.1262   1.1754
     1.2017   1.2376   1.2578   1.2871   1.3075   1.3334   1.3582   1.3835
     1.4136   1.4201   1.4399   1.4547   1.4743   1.4999   1.5382   1.5564
     1.5816   1.6012   1.6083   1.6423   1.6647   1.6878   1.6965   1.7281
     1.7527   1.7756   1.8161   1.8660   1.8907   1.9208   1.9945   2.0447
     2.0614   2.1011   2.2009   2.2618   2.3859   2.4485   2.7376   2.8868

          k =-0.1250 0.3750 0.1250 (132608 PWs)   bands (ev):

   -18.5111 -18.4783 -18.4173 -18.4103 -18.4052 -18.3994 -18.3902 -18.3761
   -18.3204 -18.3142 -18.3125 -18.3096 -18.3075 -18.3022 -18.3019 -18.2996
   -18.2982 -18.2959 -18.2953 -18.2949 -18.2289 -18.2237 -18.2173 -18.2095
   -18.2075 -18.2074 -18.2029 -18.1925 -18.1920 -18.1910 -18.1903 -18.1896
   -18.1877 -18.1847 -18.1844 -18.1790 -18.1763 -18.1722 -18.1718 -18.1675
   -18.1663 -18.1591 -18.1521 -18.1121 -18.1066 -18.0978 -18.0904 -18.0804
    -9.5031  -9.3471  -9.2265  -9.1935  -9.1319  -9.0992  -9.0516  -9.0359
    -9.0030  -8.9615  -8.9450  -8.9112  -8.8919  -8.8665  -8.8466  -8.8293
    -8.8073  -8.7745  -8.7470  -8.7316  -8.7097  -8.6606  -8.6393  -8.5300
    -5.2853  -5.2685  -5.2626  -5.2436  -5.2348  -5.2272  -5.1538  -5.1403
    -5.1361  -5.1012  -5.0977  -5.0846  -5.0820  -5.0783  -5.0684  -5.0290
    -5.0043  -4.9906  -4.9881  -4.9846  -4.9712  -4.9683  -4.9654  -4.9519
    -4.3244  -4.1074  -3.8067  -3.7695  -3.5652  -3.5305  -3.2045  -2.9609
    -0.7360  -0.6615  -0.6213  -0.5688  -0.5384  -0.4841  -0.4575  -0.4229
    -0.1942  -0.0957   0.0378   0.1354   0.4252   0.4645   0.4992   0.5372
     0.5497   0.5655   0.6338   0.6539   0.6953   0.7017   0.7814   0.8381
     0.8720   0.9123   1.0207   1.0689   1.0840   1.1065   1.1407   1.1589
     1.1906   1.2141   1.2690   1.2794   1.3148   1.3476   1.3560   1.3770
     1.4066   1.4238   1.4406   1.4560   1.4821   1.5072   1.5341   1.5469
     1.5552   1.5960   1.6099   1.6506   1.6591   1.7025   1.7069   1.7488
     1.7743   1.8114   1.8288   1.8539   1.8906   1.9517   1.9662   2.0159
     2.0660   2.1295   2.1891   2.2643   2.3810   2.4726   2.7480   2.8989

          k =-0.1250-0.3750-0.1250 (132608 PWs)   bands (ev):

   -18.5111 -18.4783 -18.4173 -18.4103 -18.4052 -18.3994 -18.3902 -18.3761
   -18.3204 -18.3142 -18.3125 -18.3096 -18.3075 -18.3022 -18.3019 -18.2996
   -18.2982 -18.2959 -18.2953 -18.2949 -18.2289 -18.2237 -18.2173 -18.2095
   -18.2075 -18.2074 -18.2029 -18.1925 -18.1920 -18.1910 -18.1903 -18.1896
   -18.1877 -18.1847 -18.1844 -18.1790 -18.1764 -18.1722 -18.1718 -18.1675
   -18.1663 -18.1591 -18.1521 -18.1121 -18.1066 -18.0978 -18.0904 -18.0804
    -9.5028  -9.3499  -9.2166  -9.1931  -9.1433  -9.0963  -9.0535  -9.0413
    -8.9978  -8.9605  -8.9382  -8.9121  -8.8875  -8.8700  -8.8517  -8.8277
    -8.8131  -8.7699  -8.7475  -8.7320  -8.7097  -8.6598  -8.6390  -8.5303
    -5.2853  -5.2685  -5.2626  -5.2435  -5.2348  -5.2272  -5.1538  -5.1403
    -5.1361  -5.1012  -5.0979  -5.0847  -5.0819  -5.0781  -5.0683  -5.0292
    -5.0042  -4.9905  -4.9879  -4.9846  -4.9708  -4.9687  -4.9654  -4.9523
    -4.3245  -4.1088  -3.8051  -3.7665  -3.5686  -3.5305  -3.2027  -2.9626
    -0.7444  -0.6552  -0.6164  -0.5814  -0.5225  -0.4930  -0.4546  -0.4016
    -0.2146  -0.1000   0.0525   0.1158   0.4335   0.4669   0.4931   0.5298
     0.5484   0.5735   0.6403   0.6495   0.6779   0.7100   0.7951   0.8288
     0.8659   0.9269   1.0057   1.0576   1.0880   1.1023   1.1473   1.1752
     1.2177   1.2440   1.2579   1.2879   1.3084   1.3418   1.3461   1.3683
     1.3912   1.4079   1.4255   1.4575   1.4852   1.5033   1.5256   1.5589
     1.5661   1.6066   1.6189   1.6417   1.6585   1.6953   1.7218   1.7497
     1.7700   1.8006   1.8357   1.8594   1.8997   1.9278   1.9736   2.0249
     2.0694   2.1140   2.1874   2.2670   2.4027   2.4671   2.7353   2.8956

          k = 0.1250 0.3750-0.1250 (132608 PWs)   bands (ev):

   -18.5111 -18.4783 -18.4173 -18.4103 -18.4052 -18.3994 -18.3902 -18.3761
   -18.3204 -18.3142 -18.3125 -18.3096 -18.3075 -18.3022 -18.3019 -18.2996
   -18.2982 -18.2959 -18.2953 -18.2949 -18.2289 -18.2237 -18.2173 -18.2095
   -18.2075 -18.2074 -18.2029 -18.1925 -18.1920 -18.1910 -18.1903 -18.1896
   -18.1877 -18.1847 -18.1844 -18.1790 -18.1764 -18.1722 -18.1718 -18.1675
   -18.1663 -18.1591 -18.1521 -18.1121 -18.1066 -18.0978 -18.0904 -18.0804
    -9.5028  -9.3487  -9.2254  -9.1897  -9.1308  -9.1070  -9.0494  -9.0369
    -8.9987  -8.9670  -8.9411  -8.9091  -8.8982  -8.8653  -8.8440  -8.8243
    -8.8095  -8.7786  -8.7438  -8.7345  -8.7101  -8.6606  -8.6379  -8.5303
    -5.2853  -5.2685  -5.2626  -5.2436  -5.2348  -5.2271  -5.1538  -5.1402
    -5.1362  -5.1013  -5.0974  -5.0848  -5.0822  -5.0782  -5.0681  -5.0292
    -5.0042  -4.9898  -4.9877  -4.9859  -4.9711  -4.9683  -4.9651  -4.9523
    -4.3230  -4.1120  -3.8019  -3.7657  -3.5723  -3.5323  -3.1980  -2.9636
    -0.7316  -0.6587  -0.6291  -0.5818  -0.5350  -0.5095  -0.4618  -0.3880
    -0.1932  -0.0791   0.0594   0.1143   0.4248   0.4704   0.4919   0.5223
     0.5460   0.5914   0.6203   0.6445   0.6838   0.7082   0.7779   0.8423
     0.8702   0.9190   0.9978   1.0714   1.0778   1.1199   1.1435   1.1713
     1.1805   1.2379   1.2611   1.3032   1.3272   1.3330   1.3563   1.3806
     1.3915   1.4163   1.4267   1.4610   1.4891   1.4956   1.5174   1.5370
     1.5779   1.5904   1.6281   1.6358   1.6651   1.6954   1.7181   1.7283
     1.7629   1.8135   1.8351   1.8695   1.8972   1.9539   1.9801   2.0107
     2.0704   2.1111   2.2003   2.2600   2.3871   2.4673   2.7524   2.8988

          k = 0.1250-0.3750 0.1250 (132608 PWs)   bands (ev):

   -18.5111 -18.4783 -18.4173 -18.4103 -18.4052 -18.3994 -18.3902 -18.3761
   -18.3204 -18.3142 -18.3125 -18.3096 -18.3075 -18.3022 -18.3019 -18.2996
   -18.2982 -18.2959 -18.2953 -18.2949 -18.2289 -18.2237 -18.2173 -18.2095
   -18.2075 -18.2074 -18.2029 -18.1925 -18.1920 -18.1910 -18.1903 -18.1896
   -18.1877 -18.1847 -18.1844 -18.1790 -18.1764 -18.1722 -18.1718 -18.1675
   -18.1663 -18.1591 -18.1521 -18.1121 -18.1066 -18.0978 -18.0904 -18.0804
    -9.5031  -9.3472  -9.2275  -9.1927  -9.1297  -9.0944  -9.0569  -9.0476
    -8.9932  -8.9620  -8.9377  -8.9161  -8.8899  -8.8726  -8.8429  -8.8309
    -8.8072  -8.7739  -8.7428  -8.7347  -8.7107  -8.6612  -8.6387  -8.5299
    -5.2852  -5.2685  -5.2626  -5.2436  -5.2348  -5.2272  -5.1538  -5.1401
    -5.1362  -5.1013  -5.0975  -5.0848  -5.0824  -5.0782  -5.0680  -5.0290
    -5.0043  -4.9899  -4.9876  -4.9860  -4.9709  -4.9685  -4.9654  -4.9519
    -4.3228  -4.1107  -3.8044  -3.7672  -3.5694  -3.5324  -3.1995  -2.9620
    -0.7473  -0.6673  -0.6278  -0.5743  -0.5349  -0.4886  -0.4560  -0.3945
    -0.1975  -0.0756   0.0509   0.1314   0.4154   0.4669   0.4959   0.5298
     0.5442   0.5734   0.6254   0.6533   0.6769   0.7012   0.7773   0.8361
     0.8773   0.9137   1.0014   1.0641   1.0829   1.1003   1.1655   1.1702
     1.2075   1.2374   1.2721   1.2957   1.3202   1.3320   1.3481   1.3669
     1.3910   1.4176   1.4327   1.4599   1.4864   1.5064   1.5170   1.5344
     1.5715   1.5934   1.6308   1.6357   1.6629   1.7008   1.7176   1.7289
     1.7765   1.8048   1.8322   1.8603   1.8906   1.9583   1.9822   2.0000
     2.0754   2.1204   2.2131   2.2401   2.3975   2.4660   2.7632   2.8867

          k =-0.1250-0.3750 0.3750 (132616 PWs)   bands (ev):

   -18.5111 -18.4783 -18.4173 -18.4103 -18.4052 -18.3994 -18.3902 -18.3761
   -18.3204 -18.3142 -18.3125 -18.3096 -18.3075 -18.3022 -18.3019 -18.2996
   -18.2982 -18.2959 -18.2953 -18.2949 -18.2289 -18.2237 -18.2173 -18.2095
   -18.2075 -18.2074 -18.2029 -18.1925 -18.1919 -18.1910 -18.1903 -18.1896
   -18.1877 -18.1847 -18.1844 -18.1790 -18.1764 -18.1722 -18.1718 -18.1675
   -18.1663 -18.1591 -18.1521 -18.1121 -18.1066 -18.0978 -18.0904 -18.0804
    -9.5000  -9.3271  -9.2525  -9.1742  -9.1428  -9.1151  -9.0760  -9.0460
    -8.9913  -8.9802  -8.9255  -8.9050  -8.8896  -8.8527  -8.8345  -8.8201
    -8.7915  -8.7689  -8.7490  -8.7322  -8.7215  -8.6749  -8.6424  -8.5307
    -5.2852  -5.2685  -5.2626  -5.2437  -5.2348  -5.2270  -5.1536  -5.1400
    -5.1360  -5.1017  -5.0977  -5.0846  -5.0821  -5.0784  -5.0680  -5.0299
    -5.0045  -4.9903  -4.9884  -4.9844  -4.9708  -4.9685  -4.9649  -4.9525
    -4.2058  -4.0200  -3.9212  -3.7402  -3.6390  -3.4743  -3.3356  -3.1591
    -0.7103  -0.5932  -0.5577  -0.5329  -0.4287  -0.2986  -0.1878  -0.1019
    -0.0384   0.0138   0.1243   0.1943   0.3244   0.4206   0.4407   0.4658
     0.5176   0.5375   0.5762   0.6164   0.6434   0.6766   0.7160   0.7363
     0.8126   0.8771   0.9031   0.9480   0.9840   1.0133   1.0254   1.0985
     1.1577   1.1915   1.2300   1.2447   1.2794   1.2988   1.3471   1.3716
     1.3875   1.4199   1.4327   1.4813   1.5230   1.5334   1.5582   1.5780
     1.6002   1.6188   1.6532   1.6784   1.7042   1.7235   1.7447   1.7692
     1.8055   1.8100   1.8434   1.8733   1.9066   1.9296   1.9578   1.9753
     1.9929   2.0396   2.0646   2.1880   2.2439   2.3481   2.5401   2.5904

          k =-0.1250 0.3750-0.3750 (132616 PWs)   bands (ev):

   -18.5111 -18.4783 -18.4173 -18.4103 -18.4052 -18.3994 -18.3902 -18.3761
   -18.3204 -18.3142 -18.3125 -18.3096 -18.3075 -18.3022 -18.3019 -18.2996
   -18.2982 -18.2959 -18.2953 -18.2949 -18.2289 -18.2237 -18.2173 -18.2095
   -18.2075 -18.2074 -18.2029 -18.1925 -18.1919 -18.1910 -18.1903 -18.1896
   -18.1877 -18.1847 -18.1844 -18.1790 -18.1764 -18.1722 -18.1718 -18.1675
   -18.1663 -18.1591 -18.1521 -18.1121 -18.1066 -18.0978 -18.0904 -18.0804
    -9.5001  -9.3265  -9.2494  -9.1846  -9.1424  -9.1022  -9.0774  -9.0549
    -8.9875  -8.9802  -8.9220  -8.9083  -8.8800  -8.8597  -8.8427  -8.8203
    -8.7892  -8.7631  -8.7489  -8.7337  -8.7215  -8.6750  -8.6436  -8.5304
    -5.2852  -5.2685  -5.2626  -5.2437  -5.2348  -5.2271  -5.1536  -5.1399
    -5.1359  -5.1018  -5.0978  -5.0846  -5.0823  -5.0784  -5.0680  -5.0298
    -5.0046  -4.9903  -4.9882  -4.9846  -4.9707  -4.9689  -4.9652  -4.9521
    -4.2052  -4.0196  -3.9197  -3.7456  -3.6364  -3.4756  -3.3348  -3.1579
    -0.7190  -0.5931  -0.5793  -0.5187  -0.4107  -0.3005  -0.1825  -0.1013
    -0.0327   0.0161   0.1239   0.2017   0.3180   0.4007   0.4361   0.4615
     0.5186   0.5455   0.5775   0.6162   0.6261   0.6866   0.7106   0.7378
     0.8193   0.8759   0.9170   0.9414   0.9789   1.0104   1.0418   1.1071
     1.1459   1.1917   1.2253   1.2511   1.2811   1.3076   1.3227   1.3673
     1.3956   1.4123   1.4422   1.4772   1.5268   1.5364   1.5506   1.5765
     1.5984   1.6354   1.6598   1.6760   1.6958   1.7274   1.7512   1.7545
     1.8002   1.8087   1.8532   1.8687   1.9065   1.9252   1.9582   1.9769
     1.9978   2.0317   2.0690   2.1745   2.2834   2.3338   2.5265   2.5993

          k = 0.1250-0.3750-0.3750 (132616 PWs)   bands (ev):

   -18.5111 -18.4783 -18.4173 -18.4103 -18.4052 -18.3994 -18.3902 -18.3761
   -18.3204 -18.3142 -18.3125 -18.3096 -18.3075 -18.3022 -18.3019 -18.2996
   -18.2982 -18.2959 -18.2953 -18.2949 -18.2289 -18.2237 -18.2173 -18.2095
   -18.2075 -18.2074 -18.2029 -18.1925 -18.1919 -18.1910 -18.1903 -18.1896
   -18.1877 -18.1847 -18.1844 -18.1790 -18.1764 -18.1722 -18.1718 -18.1675
   -18.1663 -18.1591 -18.1521 -18.1121 -18.1066 -18.0978 -18.0904 -18.0804
    -9.5002  -9.3264  -9.2485  -9.1867  -9.1381  -9.1148  -9.0651  -9.0523
    -8.9969  -8.9735  -8.9298  -8.9063  -8.8824  -8.8557  -8.8350  -8.8232
    -8.7938  -8.7614  -8.7530  -8.7323  -8.7189  -8.6747  -8.6442  -8.5304
    -5.2852  -5.2684  -5.2626  -5.2437  -5.2348  -5.2271  -5.1536  -5.1401
    -5.1358  -5.1017  -5.0980  -5.0845  -5.0819  -5.0784  -5.0684  -5.0298
    -5.0046  -4.9910  -4.9883  -4.9837  -4.9709  -4.9686  -4.9653  -4.9522
    -4.2100  -3.9966  -3.9390  -3.7487  -3.6403  -3.4352  -3.3741  -3.1515
    -0.7127  -0.5934  -0.5705  -0.5164  -0.4113  -0.2892  -0.1576  -0.1242
    -0.0691  -0.0037   0.0853   0.1807   0.3311   0.4287   0.4478   0.4867
     0.5433   0.5677   0.5960   0.6124   0.6465   0.6691   0.6804   0.7398
     0.8309   0.8779   0.9296   0.9408   0.9644   0.9961   1.0220   1.0909
     1.1435   1.1958   1.2305   1.2366   1.2679   1.2912   1.3575   1.3695
     1.4108   1.4236   1.4535   1.4710   1.5102   1.5347   1.5489   1.5790
     1.6092   1.6373   1.6521   1.6807   1.6986   1.7328   1.7523   1.7727
     1.7936   1.8150   1.8520   1.8578   1.8796   1.9002   1.9472   1.9849
     2.0110   2.0582   2.0875   2.1413   2.2542   2.3872   2.4767   2.6245

          k = 0.3750 0.1250-0.3750 (132616 PWs)   bands (ev):

   -18.5111 -18.4783 -18.4173 -18.4103 -18.4052 -18.3994 -18.3902 -18.3761
   -18.3204 -18.3142 -18.3125 -18.3096 -18.3075 -18.3022 -18.3019 -18.2996
   -18.2982 -18.2958 -18.2954 -18.2948 -18.2289 -18.2238 -18.2173 -18.2095
   -18.2075 -18.2074 -18.2029 -18.1925 -18.1919 -18.1910 -18.1903 -18.1896
   -18.1877 -18.1847 -18.1844 -18.1790 -18.1764 -18.1722 -18.1718 -18.1675
   -18.1663 -18.1591 -18.1521 -18.1121 -18.1066 -18.0978 -18.0904 -18.0804
    -9.5001  -9.3281  -9.2461  -9.1740  -9.1355  -9.1208  -9.0760  -9.0521
    -9.0123  -8.9720  -8.9415  -8.9150  -8.8564  -8.8427  -8.8310  -8.8139
    -8.7848  -8.7664  -8.7586  -8.7363  -8.7225  -8.6935  -8.6334  -8.5305
    -5.2851  -5.2685  -5.2625  -5.2437  -5.2349  -5.2270  -5.1539  -5.1403
    -5.1363  -5.1007  -5.0979  -5.0860  -5.0820  -5.0768  -5.0687  -5.0298
    -5.0047  -4.9902  -4.9877  -4.9852  -4.9715  -4.9680  -4.9647  -4.9523
    -4.2002  -3.9924  -3.9297  -3.7150  -3.6612  -3.4627  -3.3895  -3.1787
    -0.7820  -0.5554  -0.4789  -0.4032  -0.3514  -0.2358  -0.1992  -0.1194
    -0.0548  -0.0008   0.0598   0.1220   0.3177   0.4217   0.4432   0.4758
     0.5212   0.5555   0.5780   0.6109   0.6253   0.6696   0.6878   0.7266
     0.7888   0.8641   0.9190   0.9340   1.0093   1.0188   1.0865   1.1011
     1.1214   1.1849   1.2203   1.2558   1.2823   1.2986   1.3310   1.3510
     1.3756   1.3919   1.4270   1.4620   1.4869   1.5408   1.5600   1.5958
     1.6236   1.6381   1.6473   1.6853   1.7047   1.7187   1.7334   1.7637
     1.7836   1.8071   1.8379   1.8573   1.8934   1.9182   1.9429   1.9671
     2.0018   2.0069   2.0970   2.1590   2.2230   2.3693   2.4659   2.6651

          k =-0.3750-0.1250-0.3750 (132616 PWs)   bands (ev):

   -18.5111 -18.4783 -18.4173 -18.4103 -18.4052 -18.3994 -18.3902 -18.3761
   -18.3204 -18.3142 -18.3125 -18.3096 -18.3075 -18.3022 -18.3019 -18.2996
   -18.2982 -18.2958 -18.2954 -18.2948 -18.2289 -18.2238 -18.2173 -18.2095
   -18.2075 -18.2074 -18.2029 -18.1925 -18.1919 -18.1910 -18.1903 -18.1896
   -18.1877 -18.1847 -18.1844 -18.1790 -18.1764 -18.1722 -18.1718 -18.1675
   -18.1663 -18.1591 -18.1521 -18.1121 -18.1066 -18.0978 -18.0904 -18.0804
    -9.5001  -9.3303  -9.2382  -9.1823  -9.1316  -9.1200  -9.0726  -9.0646
    -9.0067  -8.9771  -8.9319  -8.9120  -8.8516  -8.8466  -8.8369  -8.8196
    -8.7851  -8.7682  -8.7530  -8.7370  -8.7195  -8.6940  -8.6341  -8.5305
    -5.2851  -5.2685  -5.2625  -5.2436  -5.2349  -5.2271  -5.1539  -5.1404
    -5.1362  -5.1006  -5.0985  -5.0858  -5.0818  -5.0765  -5.0690  -5.0298
    -5.0047  -4.9907  -4.9880  -4.9839  -4.9715  -4.9682  -4.9650  -4.9523
    -4.2015  -3.9979  -3.9213  -3.7147  -3.6598  -3.4563  -3.4022  -3.1763
    -0.7804  -0.5520  -0.4587  -0.4096  -0.3518  -0.2335  -0.2074  -0.1331
    -0.0739   0.0197   0.0480   0.1316   0.2884   0.4132   0.4294   0.5045
     0.5331   0.5493   0.5860   0.6112   0.6379   0.6647   0.6964   0.7395
     0.7934   0.8573   0.8838   0.9480   0.9965   1.0407   1.0853   1.1259
     1.1484   1.1663   1.1922   1.2443   1.2718   1.2984   1.3238   1.3552
     1.3789   1.4040   1.4233   1.4606   1.4915   1.5379   1.5784   1.5913
     1.6177   1.6445   1.6712   1.6833   1.6961   1.7268   1.7427   1.7571
     1.7865   1.8023   1.8286   1.8349   1.8840   1.9180   1.9403   1.9616
     1.9947   2.0520   2.0926   2.1541   2.2273   2.3719   2.4412   2.6666

          k = 0.3750-0.1250 0.3750 (132616 PWs)   bands (ev):

   -18.5111 -18.4783 -18.4173 -18.4103 -18.4052 -18.3994 -18.3902 -18.3761
   -18.3204 -18.3142 -18.3125 -18.3096 -18.3075 -18.3022 -18.3019 -18.2996
   -18.2982 -18.2958 -18.2954 -18.2948 -18.2289 -18.2238 -18.2173 -18.2095
   -18.2075 -18.2074 -18.2029 -18.1925 -18.1919 -18.1910 -18.1903 -18.1896
   -18.1877 -18.1847 -18.1844 -18.1790 -18.1764 -18.1722 -18.1718 -18.1675
   -18.1663 -18.1591 -18.1521 -18.1121 -18.1066 -18.0978 -18.0904 -18.0804
    -9.5002  -9.3281  -9.2392  -9.1921  -9.1336  -9.0939  -9.0859  -9.0650
    -9.0085  -8.9731  -8.9389  -8.9116  -8.8501  -8.8483  -8.8339  -8.8195
    -8.7870  -8.7641  -8.7533  -8.7344  -8.7231  -8.6954  -8.6342  -8.5302
    -5.2851  -5.2685  -5.2625  -5.2437  -5.2349  -5.2271  -5.1539  -5.1403
    -5.1363  -5.1008  -5.0980  -5.0860  -5.0820  -5.0768  -5.0686  -5.0296
    -5.0047  -4.9901  -4.9878  -4.9852  -4.9715  -4.9683  -4.9649  -4.9519
    -4.1994  -3.9970  -3.9219  -3.7275  -3.6534  -3.4555  -3.3987  -3.1755
    -0.7878  -0.5548  -0.4651  -0.4332  -0.3485  -0.2198  -0.1869  -0.1207
    -0.0693   0.0298   0.0580   0.1315   0.2754   0.4026   0.4415   0.5060
     0.5335   0.5444   0.5826   0.5986   0.6441   0.6620   0.6876   0.7311
     0.7825   0.8682   0.8960   0.9473   0.9831   1.0420   1.0940   1.1053
     1.1321   1.1786   1.2059   1.2497   1.2741   1.2884   1.3143   1.3668
     1.3849   1.4094   1.4362   1.4597   1.5012   1.5363   1.5557   1.5909
     1.6141   1.6384   1.6556   1.6791   1.6994   1.7226   1.7420   1.7659
     1.7761   1.8039   1.8308   1.8522   1.8865   1.9218   1.9467   1.9678
     1.9897   2.0528   2.0878   2.1537   2.2259   2.3802   2.4410   2.6734

          k =-0.3750 0.1250 0.3750 (132616 PWs)   bands (ev):

   -18.5111 -18.4783 -18.4173 -18.4103 -18.4052 -18.3994 -18.3902 -18.3761
   -18.3204 -18.3142 -18.3125 -18.3096 -18.3075 -18.3022 -18.3019 -18.2996
   -18.2982 -18.2958 -18.2954 -18.2948 -18.2289 -18.2238 -18.2173 -18.2095
   -18.2075 -18.2074 -18.2029 -18.1925 -18.1919 -18.1910 -18.1903 -18.1896
   -18.1877 -18.1847 -18.1844 -18.1790 -18.1764 -18.1722 -18.1718 -18.1675
   -18.1663 -18.1591 -18.1521 -18.1121 -18.1066 -18.0978 -18.0904 -18.0804
    -9.5003  -9.3268  -9.2460  -9.1753  -9.1476  -9.1059  -9.0763  -9.0550
    -9.0112  -8.9707  -8.9452  -8.9113  -8.8566  -8.8457  -8.8323  -8.8141
    -8.7814  -8.7677  -8.7585  -8.7360  -8.7212  -8.6938  -8.6345  -8.5303
    -5.2851  -5.2685  -5.2625  -5.2437  -5.2349  -5.2270  -5.1539  -5.1404
    -5.1362  -5.1006  -5.0983  -5.0857  -5.0819  -5.0767  -5.0691  -5.0297
    -5.0048  -4.9906  -4.9881  -4.9843  -4.9718  -4.9681  -4.9650  -4.9519
    -4.2015  -3.9909  -3.9277  -3.7189  -3.6568  -3.4653  -3.3920  -3.1764
    -0.7788  -0.5490  -0.4682  -0.4194  -0.3536  -0.2336  -0.1875  -0.1410
    -0.0553  -0.0092   0.0597   0.1256   0.3164   0.4182   0.4379   0.4795
     0.5273   0.5619   0.5917   0.6105   0.6242   0.6551   0.6944   0.7231
     0.7956   0.8872   0.9046   0.9435   1.0001   1.0361   1.0647   1.0996
     1.1298   1.1730   1.1973   1.2610   1.2781   1.3048   1.3194   1.3585
     1.3792   1.4013   1.4372   1.4691   1.5017   1.5329   1.5635   1.5952
     1.6151   1.6330   1.6542   1.6722   1.7039   1.7233   1.7371   1.7671
     1.7811   1.8020   1.8498   1.8549   1.8800   1.9004   1.9475   1.9642
     2.0002   2.0283   2.1042   2.1427   2.2457   2.3457   2.4620   2.6693

          k = 0.3750-0.3750 0.1250 (132616 PWs)   bands (ev):

   -18.5111 -18.4783 -18.4173 -18.4103 -18.4052 -18.3994 -18.3902 -18.3761
   -18.3204 -18.3142 -18.3125 -18.3096 -18.3075 -18.3022 -18.3019 -18.2996
   -18.2982 -18.2959 -18.2953 -18.2949 -18.2289 -18.2237 -18.2173 -18.2095
   -18.2075 -18.2074 -18.2029 -18.1925 -18.1920 -18.1910 -18.1903 -18.1896
   -18.1877 -18.1847 -18.1844 -18.1790 -18.1763 -18.1722 -18.1718 -18.1675
   -18.1663 -18.1591 -18.1521 -18.1121 -18.1066 -18.0978 -18.0904 -18.0804
    -9.4981  -9.3415  -9.2257  -9.1970  -9.1396  -9.0991  -9.0701  -9.0449
    -8.9932  -8.9863  -8.9549  -8.9069  -8.8780  -8.8543  -8.8331  -8.8161
    -8.7950  -8.7584  -8.7477  -8.7341  -8.7145  -8.6841  -8.6374  -8.5338
    -5.2852  -5.2685  -5.2624  -5.2437  -5.2349  -5.2272  -5.1539  -5.1402
    -5.1361  -5.1014  -5.0976  -5.0848  -5.0824  -5.0783  -5.0680  -5.0288
    -5.0042  -4.9898  -4.9875  -4.9857  -4.9712  -4.9689  -4.9654  -4.9515
    -4.1947  -4.0036  -3.9431  -3.7499  -3.6361  -3.4369  -3.3793  -3.1703
    -0.6368  -0.6165  -0.5651  -0.5136  -0.3901  -0.2299  -0.1922  -0.1102
    -0.0631   0.0152   0.0390   0.1942   0.3152   0.4120   0.4443   0.4755
     0.4991   0.5625   0.5728   0.6237   0.6542   0.6638   0.6952   0.7449
     0.7824   0.8754   0.9059   0.9390   0.9954   1.0411   1.0888   1.1229
     1.1441   1.1752   1.2034   1.2271   1.2771   1.3132   1.3316   1.3748
     1.3878   1.4018   1.4644   1.4778   1.5125   1.5256   1.5510   1.5815
     1.5878   1.6030   1.6196   1.6648   1.6885   1.7302   1.7347   1.7779
     1.7948   1.8144   1.8453   1.8648   1.8910   1.9228   1.9403   1.9794
     2.0037   2.0461   2.0686   2.1172   2.3039   2.3895   2.5201   2.6052

          k =-0.3750-0.3750-0.1250 (132616 PWs)   bands (ev):

   -18.5111 -18.4783 -18.4173 -18.4103 -18.4052 -18.3994 -18.3902 -18.3761
   -18.3204 -18.3142 -18.3125 -18.3096 -18.3075 -18.3022 -18.3019 -18.2996
   -18.2982 -18.2959 -18.2953 -18.2949 -18.2289 -18.2237 -18.2173 -18.2095
   -18.2075 -18.2074 -18.2029 -18.1925 -18.1920 -18.1910 -18.1903 -18.1896
   -18.1877 -18.1847 -18.1844 -18.1790 -18.1763 -18.1722 -18.1718 -18.1675
   -18.1663 -18.1591 -18.1521 -18.1121 -18.1066 -18.0978 -18.0904 -18.0804
    -9.4979  -9.3445  -9.2141  -9.1961  -9.1517  -9.1076  -9.0597  -9.0406
    -8.9988  -8.9899  -8.9503  -8.9002  -8.8812  -8.8536  -8.8370  -8.8153
    -8.7952  -8.7602  -8.7489  -8.7351  -8.7121  -8.6821  -8.6375  -8.5342
    -5.2852  -5.2685  -5.2624  -5.2436  -5.2350  -5.2272  -5.1539  -5.1403
    -5.1360  -5.1014  -5.0980  -5.0848  -5.0818  -5.0781  -5.0683  -5.0290
    -5.0042  -4.9904  -4.9877  -4.9845  -4.9713  -4.9689  -4.9654  -4.9519
    -4.1952  -4.0251  -3.9088  -3.7667  -3.6233  -3.4581  -3.3636  -3.1739
    -0.6346  -0.5986  -0.5556  -0.5175  -0.3889  -0.2499  -0.1680  -0.1342
    -0.0719  -0.0256   0.0528   0.1817   0.3215   0.4101   0.4434   0.4974
     0.5185   0.5521   0.5809   0.6065   0.6467   0.6870   0.7041   0.7550
     0.7956   0.8354   0.9158   0.9661   0.9941   1.0269   1.0768   1.1182
     1.1584   1.1843   1.2159   1.2340   1.2723   1.2866   1.3227   1.3669
     1.3865   1.4174   1.4620   1.4770   1.5083   1.5185   1.5493   1.5703
     1.5932   1.5994   1.6514   1.6824   1.6937   1.7190   1.7553   1.7702
     1.7904   1.8110   1.8237   1.8483   1.8850   1.9380   1.9582   1.9763
     1.9988   2.0291   2.0744   2.1361   2.2825   2.4328   2.4637   2.6161

          k = 0.3750 0.3750-0.1250 (132616 PWs)   bands (ev):

   -18.5111 -18.4783 -18.4173 -18.4103 -18.4052 -18.3994 -18.3902 -18.3761
   -18.3204 -18.3142 -18.3125 -18.3096 -18.3075 -18.3022 -18.3019 -18.2996
   -18.2982 -18.2959 -18.2953 -18.2949 -18.2289 -18.2237 -18.2173 -18.2095
   -18.2075 -18.2074 -18.2029 -18.1925 -18.1920 -18.1910 -18.1903 -18.1896
   -18.1877 -18.1847 -18.1844 -18.1790 -18.1763 -18.1722 -18.1718 -18.1675
   -18.1663 -18.1591 -18.1521 -18.1121 -18.1066 -18.0978 -18.0904 -18.0804
    -9.4979  -9.3433  -9.2241  -9.1874  -9.1530  -9.1050  -9.0628  -9.0305
    -9.0048  -8.9836  -8.9629  -8.9037  -8.8794  -8.8496  -8.8331  -8.8135
    -8.7945  -8.7638  -8.7491  -8.7355  -8.7121  -8.6831  -8.6367  -8.5342
    -5.2852  -5.2685  -5.2624  -5.2437  -5.2350  -5.2271  -5.1539  -5.1402
    -5.1361  -5.1014  -5.0975  -5.0849  -5.0822  -5.0782  -5.0680  -5.0290
    -5.0042  -4.9897  -4.9876  -4.9857  -4.9714  -4.9686  -4.9651  -4.9519
    -4.1935  -4.0254  -3.9095  -3.7717  -3.6212  -3.4567  -3.3619  -3.1743
    -0.6314  -0.5861  -0.5714  -0.5310  -0.4056  -0.2343  -0.1698  -0.1273
    -0.0616  -0.0130   0.0571   0.1783   0.3303   0.4131   0.4544   0.4742
     0.5312   0.5461   0.5864   0.6045   0.6364   0.6727   0.6940   0.7422
     0.8222   0.8344   0.9181   0.9622   1.0159   1.0261   1.0412   1.1133
     1.1621   1.1708   1.2101   1.2276   1.2722   1.3119   1.3335   1.3656
     1.4053   1.4405   1.4539   1.4840   1.4933   1.5154   1.5336   1.5580
     1.5806   1.6061   1.6360   1.6890   1.6932   1.7309   1.7441   1.7615
     1.7816   1.8220   1.8375   1.8624   1.8917   1.9462   1.9564   1.9825
     1.9913   2.0334   2.0724   2.1160   2.2764   2.4457   2.4674   2.6220

          k =-0.3750 0.3750 0.1250 (132616 PWs)   bands (ev):

   -18.5111 -18.4783 -18.4173 -18.4103 -18.4052 -18.3994 -18.3902 -18.3761
   -18.3204 -18.3142 -18.3125 -18.3096 -18.3075 -18.3022 -18.3019 -18.2996
   -18.2982 -18.2959 -18.2953 -18.2949 -18.2289 -18.2237 -18.2173 -18.2095
   -18.2075 -18.2074 -18.2029 -18.1925 -18.1920 -18.1910 -18.1903 -18.1896
   -18.1877 -18.1847 -18.1844 -18.1790 -18.1764 -18.1722 -18.1718 -18.1675
   -18.1663 -18.1591 -18.1521 -18.1121 -18.1066 -18.0978 -18.0904 -18.0804
    -9.4982  -9.3410  -9.2317  -9.1844  -9.1490  -9.1031  -9.0672  -9.0298
    -9.0064  -8.9795  -8.9656  -8.8967  -8.8851  -8.8525  -8.8341  -8.8132
    -8.7922  -8.7626  -8.7512  -8.7335  -8.7113  -8.6838  -8.6378  -8.5339
    -5.2852  -5.2685  -5.2624  -5.2436  -5.2350  -5.2272  -5.1538  -5.1403
    -5.1360  -5.1013  -5.0978  -5.0846  -5.0820  -5.0783  -5.0684  -5.0288
    -5.0042  -4.9905  -4.9879  -4.9845  -4.9716  -4.9686  -4.9655  -4.9515
    -4.1966  -4.0017  -3.9438  -3.7447  -3.6383  -3.4376  -3.3819  -3.1698
    -0.6286  -0.5833  -0.5640  -0.5164  -0.4272  -0.2429  -0.1894  -0.1170
    -0.0657   0.0091   0.0302   0.2013   0.3278   0.4087   0.4495   0.4755
     0.5171   0.5563   0.5967   0.6102   0.6454   0.6560   0.7083   0.7545
     0.7660   0.8826   0.9142   0.9470   1.0056   1.0331   1.0778   1.1154
     1.1294   1.1654   1.2048   1.2241   1.2911   1.3055   1.3337   1.3732
     1.4033   1.4292   1.4646   1.4716   1.5004   1.5129   1.5537   1.5616
     1.5919   1.5977   1.6412   1.6821   1.6933   1.7222   1.7396   1.7731
     1.7893   1.8233   1.8442   1.8566   1.8968   1.9127   1.9332   1.9798
     1.9954   2.0370   2.0731   2.1394   2.2923   2.3879   2.5099   2.6118

          k =-0.3750-0.3750 0.3750 (132612 PWs)   bands (ev):

   -18.5111 -18.4783 -18.4173 -18.4103 -18.4052 -18.3994 -18.3902 -18.3761
   -18.3204 -18.3142 -18.3125 -18.3096 -18.3075 -18.3022 -18.3019 -18.2996
   -18.2982 -18.2959 -18.2953 -18.2949 -18.2289 -18.2237 -18.2173 -18.2095
   -18.2075 -18.2074 -18.2029 -18.1925 -18.1919 -18.1910 -18.1903 -18.1896
   -18.1877 -18.1847 -18.1844 -18.1790 -18.1764 -18.1722 -18.1718 -18.1675
   -18.1663 -18.1591 -18.1521 -18.1121 -18.1066 -18.0978 -18.0904 -18.0804
    -9.4957  -9.3244  -9.2384  -9.1744  -9.1554  -9.1256  -9.0795  -9.0563
    -9.0247  -8.9751  -8.9397  -8.8991  -8.8565  -8.8368  -8.8278  -8.8000
    -8.7870  -8.7661  -8.7531  -8.7332  -8.7246  -8.6939  -8.6411  -8.5350
    -5.2852  -5.2685  -5.2624  -5.2438  -5.2350  -5.2271  -5.1539  -5.1401
    -5.1361  -5.1017  -5.0975  -5.0846  -5.0820  -5.0782  -5.0678  -5.0296
    -5.0043  -4.9905  -4.9885  -4.9849  -4.9710  -4.9681  -4.9648  -4.9519
    -4.0817  -3.9259  -3.8360  -3.7554  -3.6665  -3.5932  -3.5165  -3.3537
    -0.5180  -0.3754  -0.3456  -0.2600  -0.2399  -0.1682  -0.1191  -0.0747
    -0.0190   0.0270   0.1038   0.2183   0.3124   0.3445   0.3826   0.4153
     0.4586   0.4996   0.5099   0.5540   0.6034   0.6335   0.6536   0.7143
     0.8314   0.8534   0.8925   0.9408   0.9761   1.0084   1.0306   1.0580
     1.0893   1.1109   1.1421   1.1779   1.2176   1.2231   1.2588   1.3078
     1.3407   1.3928   1.4320   1.4820   1.5011   1.5531   1.5920   1.6039
     1.6524   1.6713   1.6866   1.7061   1.7322   1.7576   1.7688   1.8036
     1.8121   1.8396   1.8458   1.8703   1.8906   1.9233   1.9326   1.9407
     1.9634   2.0002   2.0088   2.0457   2.0834   2.1712   2.2340   2.3054

          k =-0.3750 0.3750-0.3750 (132612 PWs)   bands (ev):

   -18.5111 -18.4783 -18.4173 -18.4103 -18.4052 -18.3994 -18.3902 -18.3761
   -18.3204 -18.3142 -18.3125 -18.3096 -18.3075 -18.3022 -18.3019 -18.2996
   -18.2982 -18.2959 -18.2953 -18.2949 -18.2289 -18.2237 -18.2173 -18.2095
   -18.2075 -18.2074 -18.2029 -18.1925 -18.1919 -18.1910 -18.1903 -18.1896
   -18.1877 -18.1847 -18.1844 -18.1790 -18.1764 -18.1722 -18.1718 -18.1675
   -18.1663 -18.1591 -18.1521 -18.1121 -18.1066 -18.0978 -18.0904 -18.0804
    -9.4959  -9.3238  -9.2303  -9.1990  -9.1429  -9.1069  -9.0960  -9.0591
    -9.0219  -8.9771  -8.9297  -8.9034  -8.8503  -8.8448  -8.8326  -8.8010
    -8.7888  -8.7563  -8.7514  -8.7352  -8.7258  -8.6947  -8.6421  -8.5347
    -5.2852  -5.2685  -5.2624  -5.2438  -5.2350  -5.2271  -5.1540  -5.1401
    -5.1361  -5.1018  -5.0976  -5.0845  -5.0822  -5.0782  -5.0678  -5.0295
    -5.0044  -4.9904  -4.9883  -4.9851  -4.9709  -4.9685  -4.9651  -4.9516
    -4.0812  -3.9211  -3.8298  -3.7791  -3.6505  -3.5957  -3.5205  -3.3506
    -0.5375  -0.3898  -0.3293  -0.2707  -0.2266  -0.1284  -0.1063  -0.0921
    -0.0219   0.0517   0.1035   0.2148   0.2678   0.3394   0.3633   0.4125
     0.4743   0.4963   0.5227   0.5442   0.6012   0.6425   0.6726   0.7109
     0.8030   0.8738   0.8877   0.9308   0.9957   1.0168   1.0378   1.0604
     1.0856   1.1183   1.1425   1.1743   1.1934   1.2215   1.2565   1.2945
     1.3409   1.3815   1.4483   1.4816   1.5281   1.5660   1.5803   1.6174
     1.6356   1.6635   1.6854   1.7031   1.7398   1.7565   1.7753   1.7957
     1.8101   1.8227   1.8470   1.8756   1.8938   1.9164   1.9373   1.9428
     1.9633   1.9911   2.0231   2.0511   2.1128   2.1449   2.2136   2.3212

          k = 0.3750-0.3750-0.3750 (132612 PWs)   bands (ev):

   -18.5111 -18.4783 -18.4173 -18.4103 -18.4052 -18.3994 -18.3902 -18.3761
   -18.3204 -18.3142 -18.3125 -18.3096 -18.3075 -18.3022 -18.3019 -18.2996
   -18.2982 -18.2959 -18.2953 -18.2949 -18.2289 -18.2237 -18.2173 -18.2095
   -18.2075 -18.2074 -18.2029 -18.1925 -18.1919 -18.1910 -18.1903 -18.1896
   -18.1877 -18.1847 -18.1844 -18.1790 -18.1764 -18.1722 -18.1718 -18.1675
   -18.1663 -18.1591 -18.1521 -18.1121 -18.1066 -18.0978 -18.0904 -18.0804
    -9.4960  -9.3228  -9.2381  -9.1842  -9.1461  -9.1280  -9.0778  -9.0573
    -9.0231  -8.9751  -8.9415  -8.8963  -8.8563  -8.8403  -8.8289  -8.8006
    -8.7855  -8.7645  -8.7533  -8.7365  -8.7195  -8.6946  -8.6425  -8.5347
    -5.2852  -5.2685  -5.2624  -5.2438  -5.2350  -5.2271  -5.1539  -5.1402
    -5.1360  -5.1017  -5.0977  -5.0844  -5.0817  -5.0783  -5.0682  -5.0295
    -5.0044  -4.9910  -4.9885  -4.9842  -4.9712  -4.9682  -4.9652  -4.9516
    -4.0869  -3.9056  -3.8360  -3.7895  -3.6226  -3.5942  -3.5480  -3.3462
    -0.5114  -0.3787  -0.3243  -0.2662  -0.2241  -0.1715  -0.1420  -0.0795
    -0.0217   0.0131   0.0750   0.2300   0.2989   0.3497   0.3976   0.4234
     0.4751   0.4973   0.5255   0.5729   0.5935   0.6197   0.6430   0.7178
     0.8178   0.8892   0.9151   0.9407   0.9655   0.9946   1.0106   1.0541
     1.0999   1.1103   1.1395   1.1645   1.1955   1.2425   1.2694   1.2953
     1.3479   1.3999   1.4354   1.4642   1.5268   1.5589   1.5893   1.6119
     1.6460   1.6592   1.7000   1.7124   1.7429   1.7502   1.7799   1.7926
     1.8138   1.8175   1.8447   1.8564   1.8845   1.9036   1.9225   1.9392
     1.9677   2.0161   2.0487   2.0583   2.0816   2.1641   2.1878   2.3292

     highest occupied level (ev):     3.1500

!    total energy              =   -2256.30025472 Ry
     estimated scf accuracy    <          3.9E-11 Ry

     The total energy is the sum of the following terms:
     one-electron contribution =    -990.27105003 Ry
     hartree contribution      =     623.20459841 Ry
     xc contribution           =    -647.53744697 Ry
     ewald contribution        =   -1241.69635613 Ry

     convergence has been achieved in  15 iterations

     Forces acting on atoms (cartesian axes, Ry/au):

     atom    1 type  1   force =     0.03675839   -0.03927047    0.00120322
     atom    2 type  2   force =     0.00385922   -0.01142942   -0.00596128
     atom    3 type  3   force =     0.01420069    0.00143961   -0.00469012
     atom    4 type  3   force =     0.00091929    0.00526864    0.00627336
     atom    5 type  3   force =     0.00221673    0.00456503    0.00322124
     atom    6 type  1   force =     0.00700304   -0.00070496    0.00874313
     atom    7 type  2   force =    -0.00173733   -0.00242681   -0.00473924
     atom    8 type  3   force =    -0.00490155   -0.00446095    0.00110072
     atom    9 type  3   force =     0.00077975   -0.00064044   -0.00709157
     atom   10 type  3   force =    -0.00466042   -0.00656713   -0.01026172
     atom   11 type  1   force =    -0.00238367    0.00942139   -0.00978162
     atom   12 type  2   force =    -0.00702094    0.00852968    0.00061569
     atom   13 type  3   force =    -0.00283781   -0.00039975   -0.00494580
     atom   14 type  3   force =    -0.03955420    0.03337234   -0.00586252
     atom   15 type  3   force =    -0.00352835   -0.00711690    0.00031260
     atom   16 type  1   force =    -0.00326342    0.00189998    0.00371271
     atom   17 type  2   force =    -0.00370832    0.00746983    0.00168266
     atom   18 type  3   force =     0.00834433   -0.00227240    0.01471230
     atom   19 type  3   force =    -0.00318029    0.00316103   -0.00126827
     atom   20 type  3   force =     0.00611537    0.00179390    0.00565719
     atom   21 type  1   force =    -0.00249130   -0.00194236   -0.00273064
     atom   22 type  2   force =     0.00343413   -0.00333837    0.00263252
     atom   23 type  3   force =    -0.00877761   -0.00055451   -0.00158024
     atom   24 type  3   force =    -0.00082883    0.00327847   -0.00094876
     atom   25 type  3   force =    -0.00292329    0.00745843    0.00460638
     atom   26 type  1   force =     0.00599166   -0.00545331   -0.00190198
     atom   27 type  2   force =     0.00008188    0.00673865    0.00115845
     atom   28 type  3   force =     0.00630151   -0.00102562   -0.00101587
     atom   29 type  3   force =    -0.00370882   -0.00626311    0.00309530
     atom   30 type  3   force =    -0.00058002    0.00993246   -0.00062167
     atom   31 type  1   force =     0.00297807    0.00144683   -0.00036921
     atom   32 type  2   force =     0.01157430    0.00354719    0.01119242
     atom   33 type  3   force =     0.00065820   -0.00188860   -0.00215542
     atom   34 type  3   force =     0.00818734    0.00278572    0.00867900
     atom   35 type  3   force =    -0.00743622   -0.00111079   -0.01014304
     atom   36 type  1   force =     0.00009504    0.00051365    0.00285794
     atom   37 type  2   force =    -0.00349013   -0.02496772   -0.00033505
     atom   38 type  3   force =    -0.00942437    0.00126604   -0.00087303
     atom   39 type  3   force =    -0.00526514    0.01026448   -0.00600191
     atom   40 type  3   force =     0.00220311   -0.00231976    0.00182210

     Total force =     0.097470     Total SCF correction =     0.000027


     Computing stress (Cartesian axis) and pressure

          total   stress  (Ry/bohr**3)                   (kbar)     P=       -6.94
  -0.00003982  -0.00001175   0.00000327           -5.86       -1.73        0.48
  -0.00001175  -0.00004354  -0.00000215           -1.73       -6.41       -0.32
   0.00000327  -0.00000215  -0.00005810            0.48       -0.32       -8.55

 
     init_run     :     20.16s CPU     17.09s WALL (       1 calls)
     electrons    :    200.72s CPU    211.64s WALL (       1 calls)
     forces       :      8.82s CPU      3.99s WALL (       1 calls)
     stress       :     29.91s CPU     30.80s WALL (       1 calls)

     Called by init_run:
     wfcinit      :     12.21s CPU     14.02s WALL (       1 calls)
                                       14.02s GPU  (       1 calls)
     potinit      :      4.59s CPU      1.40s WALL (       1 calls)
     hinit0       :      2.78s CPU      1.00s WALL (       1 calls)

     Called by electrons:
     c_bands      :    119.40s CPU    168.98s WALL (      16 calls)
     sum_band     :     22.04s CPU     21.12s WALL (      16 calls)
                                       21.12s GPU  (      16 calls)
     v_of_rho     :     55.05s CPU     16.70s WALL (      16 calls)
     mix_rho      :      6.44s CPU      5.10s WALL (      16 calls)

     Called by c_bands:
     init_us_2    :      2.36s CPU      3.08s WALL (     280 calls)
                                        3.07s GPU  (     280 calls)
     cegterg      :     80.05s CPU    126.94s WALL (     128 calls)

     Called by *egterg:
     cdiaghg      :     13.31s CPU     24.87s WALL (     649 calls)
                                       24.83s GPU  (     649 calls)
     h_psi        :     54.79s CPU     74.01s WALL (     665 calls)
                                       73.57s GPU  (     665 calls)
     g_psi        :      0.00s CPU      0.36s WALL (     529 calls)
                                        0.36s GPU  (     529 calls)

     Called by h_psi:
     h_psi:calbec :      0.31s CPU      9.94s WALL (     665 calls)
                                        9.93s GPU  (     665 calls)
     vloc_psi     :     40.26s CPU     54.15s WALL (     665 calls)
                                       53.23s GPU  (     665 calls)
     add_vuspsi   :      0.33s CPU      9.84s WALL (     665 calls)
                                        9.83s GPU  (     665 calls)

     General routines
     calbec       :      0.31s CPU      0.39s WALL (     705 calls)
     fft          :     25.49s CPU      6.54s WALL (     185 calls)
                                        0.01s GPU  (       6 calls)
     ffts         :      2.61s CPU      0.67s WALL (      16 calls)
     fftw         :      0.59s CPU     62.71s WALL (   10494 calls)
                                       46.81s GPU  (   10494 calls)
 
     Parallel routines
 
     PWSCF        :   4m20.34s CPU   4m24.36s WALL

 
   This run was terminated on:  21:11:11  22Apr2021            

=------------------------------------------------------------------------------=
   JOB DONE.
=------------------------------------------------------------------------------=
