
     Program PWSCF v.6.7MaX starts on 22Apr2021 at 23:39:22 

     This program is part of the open-source Quantum ESPRESSO suite
     for quantum simulation of materials; please cite
         "P. Giannozzi et al., J. Phys.:Condens. Matter 21 395502 (2009);
         "P. Giannozzi et al., J. Phys.:Condens. Matter 29 465901 (2017);
         "P. Giannozzi et al., J. Chem. Phys. 152 154105 (2020);
          URL http://www.quantum-espresso.org", 
     in publications or presentations arising from this work. More details at
     http://www.quantum-espresso.org/quote

     Parallel version (MPI & OpenMP), running on      16 processor cores
     Number of MPI processes:                 4
     Threads/MPI process:                     4

     MPI processes distributed on     1 nodes
     K-points division:     npool     =       4
     Reading input from ESP_35.pwi
Warning: card &CELL ignored
Warning: card / ignored

     Current dimensions of program PWSCF are:
     Max number of different atomic species (ntypx) = 10
     Max number of k-points (npk) =  40000
     Max angular momentum in pseudopotentials (lmaxx) =  3
     Message from routine read_pp_mesh:
     mesh size missing, using the one in header
     Message from routine read_pp_mesh:
     mesh size missing, using the one in header
     Message from routine read_pp_mesh:
     mesh size missing, using the one in header

     Subspace diagonalization in iterative solution of the eigenvalue problem:
     a serial algorithm will be used

 
     G-vector sticks info
     --------------------
     sticks:   dense  smooth     PW     G-vecs:    dense   smooth      PW
     Sum       12589   12589   3289              1061107  1061107  140905
 
     Using Slab Decomposition
 


     bravais-lattice index     =            0
     lattice parameter (alat)  =      23.7585  a.u.
     unit-cell volume          =   13410.8736 (a.u.)^3
     number of atoms/cell      =           40
     number of atomic types    =            3
     number of electrons       =       352.00
     number of Kohn-Sham states=          176
     kinetic-energy cutoff     =      70.0000  Ry
     charge density cutoff     =     280.0000  Ry
     scf convergence threshold =      1.0E-10
     mixing beta               =       0.7000
     number of iterations used =            8  plain     mixing
     Exchange-correlation= PBESOL
                           (   1   4  10   8   0   0   0)

     GPU acceleration is ACTIVE.


     celldm(1)=  23.758500  celldm(2)=   0.000000  celldm(3)=   0.000000
     celldm(4)=   0.000000  celldm(5)=   0.000000  celldm(6)=   0.000000

     crystal axes: (cart. coord. in units of alat)
               a(1) = (   1.000000   0.000000   0.000000 )  
               a(2) = (   0.000000   1.000000   0.000000 )  
               a(3) = (   0.000000   0.000000   1.000000 )  

     reciprocal axes: (cart. coord. in units 2 pi/alat)
               b(1) = (  1.000000  0.000000  0.000000 )  
               b(2) = (  0.000000  1.000000  0.000000 )  
               b(3) = (  0.000000  0.000000  1.000000 )  


     PseudoPot. # 1 for Cs read from file:
     /m100/home/userexternal/lmonacel/espresso/pseudo/Cs-nc-pbesol.upf
     MD5 check sum: 9d2f2206a14dc5b3b3f3fbfae186bed4
     Pseudo is Norm-conserving + core correction, Zval =  9.0
     Generated using ONCVPSP code by D. R. Hamann
     Using radial grid of 2384 points,  8 beta functions with: 
                l(1) =   0
                l(2) =   0
                l(3) =   1
                l(4) =   1
                l(5) =   2
                l(6) =   2
                l(7) =   3
                l(8) =   3

     PseudoPot. # 2 for Sn read from file:
     /m100/home/userexternal/lmonacel/espresso/pseudo/Sn-nc-pbesol.upf
     MD5 check sum: c2995d571af40102bfea7461443d92cf
     Pseudo is Norm-conserving + core correction, Zval = 14.0
     Generated using ONCVPSP code by D. R. Hamann
     Using radial grid of 1628 points,  6 beta functions with: 
                l(1) =   0
                l(2) =   0
                l(3) =   1
                l(4) =   1
                l(5) =   2
                l(6) =   2

     PseudoPot. # 3 for I  read from file:
     /m100/home/userexternal/lmonacel/espresso/pseudo/I-nc-pbesol.upf
     MD5 check sum: 80ed5ceb2eb9c553cfb6760a299d9c5b
     Pseudo is Norm-conserving + core correction, Zval =  7.0
     Generated using ONCVPSP code by D. R. Hamann
     Using radial grid of 1182 points,  6 beta functions with: 
                l(1) =   0
                l(2) =   0
                l(3) =   1
                l(4) =   1
                l(5) =   2
                l(6) =   2

     atomic species   valence    mass     pseudopotential
        Cs             9.00   132.90545     Cs( 1.00)
        Sn            14.00   118.71000     Sn( 1.00)
        I              7.00   126.90447     I ( 1.00)

     No symmetry found



   Cartesian axes

     site n.     atom                  positions (alat units)
         1           Cs  tau(   1) = (   0.2530513   0.2558624   0.2581607  )
         2           Sn  tau(   2) = (   0.0023154   0.0093171  -0.0060725  )
         3           I   tau(   3) = (   0.2637661  -0.0039760   0.0344183  )
         4           I   tau(   4) = (   0.0160047   0.0117232   0.2324437  )
         5           I   tau(   5) = (  -0.0156396   0.2454276  -0.0406885  )
         6           Cs  tau(   6) = (   0.2392317   0.2536259   0.8203229  )
         7           Sn  tau(   7) = (  -0.0038843  -0.0024221   0.5076257  )
         8           I   tau(   8) = (   0.2584202   0.0348907   0.5110261  )
         9           I   tau(   9) = (  -0.0235183  -0.0103123   0.7243900  )
        10           I   tau(  10) = (  -0.0460353   0.2612371   0.5149467  )
        11           Cs  tau(  11) = (   0.2507606   0.7574358   0.2565877  )
        12           Sn  tau(  12) = (   0.0129248   0.4980466  -0.0254711  )
        13           I   tau(  13) = (   0.2567618   0.4795059  -0.0357882  )
        14           I   tau(  14) = (   0.0016312   0.4971889   0.2448180  )
        15           I   tau(  15) = (   0.0132722   0.7478013   0.0252745  )
        16           Cs  tau(  16) = (   0.2433705   0.7271024   0.7315236  )
        17           Sn  tau(  17) = (  -0.0054334   0.5148847   0.4795920  )
        18           I   tau(  18) = (   0.2637242   0.5037360   0.4973086  )
        19           I   tau(  19) = (  -0.0080723   0.5116537   0.7523556  )
        20           I   tau(  20) = (   0.0207315   0.7496560   0.5110622  )
        21           Cs  tau(  21) = (   0.7330310   0.2081687   0.2410177  )
        22           Sn  tau(  22) = (   0.5003199  -0.0281111  -0.0038158  )
        23           I   tau(  23) = (   0.7604965  -0.0194087  -0.0156167  )
        24           I   tau(  24) = (   0.5060284   0.0417578   0.2525465  )
        25           I   tau(  25) = (   0.4644341   0.2465768  -0.0018477  )
        26           Cs  tau(  26) = (   0.7335407   0.2508863   0.7695029  )
        27           Sn  tau(  27) = (   0.5005635   0.0049138   0.5064667  )
        28           I   tau(  28) = (   0.7408058  -0.0311868   0.5192839  )
        29           I   tau(  29) = (   0.4715130  -0.0200869   0.7608551  )
        30           I   tau(  30) = (   0.5154683   0.2471357   0.5353327  )
        31           Cs  tau(  31) = (   0.7565826   0.7890332   0.2484548  )
        32           Sn  tau(  32) = (   0.5239947   0.4795358   0.0045718  )
        33           I   tau(  33) = (   0.7576660   0.5065646  -0.0193581  )
        34           I   tau(  34) = (   0.5184072   0.4739710   0.2382468  )
        35           I   tau(  35) = (   0.5219109   0.7514563   0.0473953  )
        36           Cs  tau(  36) = (   0.7408903   0.7379424   0.7354220  )
        37           Sn  tau(  37) = (   0.5102875   0.5016530   0.4926317  )
        38           I   tau(  38) = (   0.7721160   0.5347677   0.4740775  )
        39           I   tau(  39) = (   0.5082950   0.5233728   0.7249071  )
        40           I   tau(  40) = (   0.4752613   0.7581833   0.4903340  )

     number of k points=    32
                       cart. coord. in units 2pi/alat
        k(    1) = (   0.1250000   0.1250000   0.1250000), wk =   0.0625000
        k(    2) = (   0.1250000   0.1250000   0.3750000), wk =   0.0625000
        k(    3) = (   0.1250000   0.3750000   0.3750000), wk =   0.0625000
        k(    4) = (   0.3750000   0.3750000   0.3750000), wk =   0.0625000
        k(    5) = (  -0.1250000  -0.1250000   0.1250000), wk =   0.0625000
        k(    6) = (  -0.1250000   0.1250000  -0.1250000), wk =   0.0625000
        k(    7) = (   0.1250000  -0.1250000  -0.1250000), wk =   0.0625000
        k(    8) = (  -0.1250000  -0.1250000   0.3750000), wk =   0.0625000
        k(    9) = (  -0.1250000   0.1250000  -0.3750000), wk =   0.0625000
        k(   10) = (   0.1250000  -0.1250000  -0.3750000), wk =   0.0625000
        k(   11) = (   0.3750000  -0.1250000   0.1250000), wk =   0.0625000
        k(   12) = (  -0.3750000  -0.1250000  -0.1250000), wk =   0.0625000
        k(   13) = (   0.3750000   0.1250000  -0.1250000), wk =   0.0625000
        k(   14) = (  -0.3750000   0.1250000   0.1250000), wk =   0.0625000
        k(   15) = (  -0.1250000   0.3750000   0.1250000), wk =   0.0625000
        k(   16) = (  -0.1250000  -0.3750000  -0.1250000), wk =   0.0625000
        k(   17) = (   0.1250000   0.3750000  -0.1250000), wk =   0.0625000
        k(   18) = (   0.1250000  -0.3750000   0.1250000), wk =   0.0625000
        k(   19) = (  -0.1250000  -0.3750000   0.3750000), wk =   0.0625000
        k(   20) = (  -0.1250000   0.3750000  -0.3750000), wk =   0.0625000
        k(   21) = (   0.1250000  -0.3750000  -0.3750000), wk =   0.0625000
        k(   22) = (   0.3750000   0.1250000  -0.3750000), wk =   0.0625000
        k(   23) = (  -0.3750000  -0.1250000  -0.3750000), wk =   0.0625000
        k(   24) = (   0.3750000  -0.1250000   0.3750000), wk =   0.0625000
        k(   25) = (  -0.3750000   0.1250000   0.3750000), wk =   0.0625000
        k(   26) = (   0.3750000  -0.3750000   0.1250000), wk =   0.0625000
        k(   27) = (  -0.3750000  -0.3750000  -0.1250000), wk =   0.0625000
        k(   28) = (   0.3750000   0.3750000  -0.1250000), wk =   0.0625000
        k(   29) = (  -0.3750000   0.3750000   0.1250000), wk =   0.0625000
        k(   30) = (  -0.3750000  -0.3750000   0.3750000), wk =   0.0625000
        k(   31) = (  -0.3750000   0.3750000  -0.3750000), wk =   0.0625000
        k(   32) = (   0.3750000  -0.3750000  -0.3750000), wk =   0.0625000

     Dense  grid:  1061107 G-vectors     FFT dimensions: ( 128, 128, 128)

     Estimated max dynamical RAM per process >       6.82 GB

     Estimated total dynamical RAM >      27.27 GB

     Initial potential from superposition of free atoms

     starting charge  351.69472, renormalised to  352.00000
     Starting wfcs are  208 randomized atomic wfcs

     total cpu time spent up to now is       17.9 secs

     Self-consistent Calculation

     iteration #  1     ecut=    70.00 Ry     beta= 0.70
     Davidson diagonalization with overlap
     ethr =  1.00E-02,  avg # of iterations =  2.0

     Threshold (ethr) on eigenvalues was too large:
     Diagonalizing with lowered threshold

     Davidson diagonalization with overlap
     ethr =  2.11E-04,  avg # of iterations =  4.0

     total cpu time spent up to now is       38.9 secs

     total energy              =   -2256.00992741 Ry
     estimated scf accuracy    <       0.63749371 Ry

     iteration #  2     ecut=    70.00 Ry     beta= 0.70
     Davidson diagonalization with overlap
     ethr =  1.81E-04,  avg # of iterations =  3.3

     total cpu time spent up to now is       52.0 secs

     total energy              =   -2256.20239053 Ry
     estimated scf accuracy    <       0.29928857 Ry

     iteration #  3     ecut=    70.00 Ry     beta= 0.70
     Davidson diagonalization with overlap
     ethr =  8.50E-05,  avg # of iterations =  3.0

     total cpu time spent up to now is       63.8 secs

     total energy              =   -2256.26028955 Ry
     estimated scf accuracy    <       0.02342527 Ry

     iteration #  4     ecut=    70.00 Ry     beta= 0.70
     Davidson diagonalization with overlap
     ethr =  6.65E-06,  avg # of iterations =  4.0

     total cpu time spent up to now is       77.0 secs

     total energy              =   -2256.26825073 Ry
     estimated scf accuracy    <       0.00667738 Ry

     iteration #  5     ecut=    70.00 Ry     beta= 0.70
     Davidson diagonalization with overlap
     ethr =  1.90E-06,  avg # of iterations =  3.0

     total cpu time spent up to now is       89.0 secs

     total energy              =   -2256.26954511 Ry
     estimated scf accuracy    <       0.00099213 Ry

     iteration #  6     ecut=    70.00 Ry     beta= 0.70
     Davidson diagonalization with overlap
     ethr =  2.82E-07,  avg # of iterations =  4.0

     total cpu time spent up to now is      101.7 secs

     total energy              =   -2256.26974831 Ry
     estimated scf accuracy    <       0.00015042 Ry

     iteration #  7     ecut=    70.00 Ry     beta= 0.70
     Davidson diagonalization with overlap
     ethr =  4.27E-08,  avg # of iterations =  4.5

     total cpu time spent up to now is      115.3 secs

     total energy              =   -2256.26979758 Ry
     estimated scf accuracy    <       0.00002080 Ry

     iteration #  8     ecut=    70.00 Ry     beta= 0.70
     Davidson diagonalization with overlap
     ethr =  5.91E-09,  avg # of iterations =  3.1

     total cpu time spent up to now is      128.8 secs

     total energy              =   -2256.26980619 Ry
     estimated scf accuracy    <       0.00000279 Ry

     iteration #  9     ecut=    70.00 Ry     beta= 0.70
     Davidson diagonalization with overlap
     ethr =  7.93E-10,  avg # of iterations =  5.8

     total cpu time spent up to now is      144.6 secs

     total energy              =   -2256.26980740 Ry
     estimated scf accuracy    <       0.00000113 Ry

     iteration # 10     ecut=    70.00 Ry     beta= 0.70
     Davidson diagonalization with overlap
     ethr =  3.20E-10,  avg # of iterations =  3.7

     total cpu time spent up to now is      157.6 secs

     total energy              =   -2256.26980770 Ry
     estimated scf accuracy    <       0.00000019 Ry

     iteration # 11     ecut=    70.00 Ry     beta= 0.70
     Davidson diagonalization with overlap
     ethr =  5.36E-11,  avg # of iterations =  4.5

     total cpu time spent up to now is      171.8 secs

     total energy              =   -2256.26980778 Ry
     estimated scf accuracy    <       0.00000003 Ry

     iteration # 12     ecut=    70.00 Ry     beta= 0.70
     Davidson diagonalization with overlap
     ethr =  7.70E-12,  avg # of iterations =  5.9

     total cpu time spent up to now is      188.6 secs

     total energy              =   -2256.26980780 Ry
     estimated scf accuracy    <       0.00000001 Ry

     iteration # 13     ecut=    70.00 Ry     beta= 0.70
     Davidson diagonalization with overlap
     ethr =  3.84E-12,  avg # of iterations =  2.8

     total cpu time spent up to now is      200.9 secs

     total energy              =   -2256.26980780 Ry
     estimated scf accuracy    <          1.3E-09 Ry

     iteration # 14     ecut=    70.00 Ry     beta= 0.70
     Davidson diagonalization with overlap
     ethr =  3.61E-13,  avg # of iterations =  5.3

     total cpu time spent up to now is      216.9 secs

     total energy              =   -2256.26980780 Ry
     estimated scf accuracy    <          2.0E-10 Ry

     iteration # 15     ecut=    70.00 Ry     beta= 0.70
     Davidson diagonalization with overlap
     ethr =  1.00E-13,  avg # of iterations =  3.8

     total cpu time spent up to now is      230.0 secs

     End of self-consistent calculation

          k = 0.1250 0.1250 0.1250 (132670 PWs)   bands (ev):

   -18.4420 -18.4249 -18.4104 -18.3992 -18.3779 -18.3634 -18.3565 -18.3126
   -18.3103 -18.3018 -18.2920 -18.2907 -18.2863 -18.2789 -18.2773 -18.2744
   -18.2674 -18.2077 -18.2077 -18.1991 -18.1963 -18.1898 -18.1888 -18.1869
   -18.1852 -18.1808 -18.1784 -18.1737 -18.1721 -18.1682 -18.1673 -18.1641
   -18.1627 -18.1604 -18.1599 -18.1437 -18.1388 -18.1197 -18.1171 -18.1055
   -18.1033 -18.0962 -18.0831 -18.0308 -18.0199 -18.0040 -17.9945 -17.9905
    -9.5180  -9.4184  -9.3608  -9.3180  -9.2315  -9.1658  -9.1222  -9.0803
    -9.0535  -9.0246  -9.0106  -8.9876  -8.9626  -8.9244  -8.8885  -8.8129
    -8.7965  -8.7519  -8.7231  -8.6689  -8.5936  -8.5620  -8.5326  -8.2912
    -5.2453  -5.2208  -5.2061  -5.2007  -5.1954  -5.1859  -5.1817  -5.1779
    -5.1731  -5.1699  -5.1590  -5.1571  -5.1460  -5.1432  -5.1403  -5.1366
    -5.1307  -5.1284  -5.1246  -5.1219  -5.1174  -4.9674  -4.9576  -4.9429
    -4.4223  -3.9727  -3.8881  -3.8698  -3.4337  -3.3639  -3.3235  -2.7811
    -0.8290  -0.7371  -0.6676  -0.6272  -0.5664  -0.5328  -0.5059  -0.4490
    -0.4067  -0.3359  -0.2641  -0.1430   0.4282   0.4519   0.5202   0.6019
     0.6186   0.6646   0.6878   0.7030   0.7608   0.8065   0.8661   0.9147
     0.9393   0.9790   0.9963   1.0211   1.0653   1.1139   1.1173   1.1589
     1.2127   1.2368   1.2474   1.2707   1.2878   1.3149   1.3414   1.3575
     1.3919   1.4153   1.4455   1.4595   1.4868   1.5214   1.5426   1.5524
     1.5867   1.6006   1.6384   1.6576   1.6673   1.6929   1.7145   1.7384
     1.7782   1.8284   1.9135   1.9460   1.9911   2.0342   2.0683   2.0773
     2.1108   2.2167   2.2822   2.3708   2.6177   2.7145   2.8277   3.1583

          k = 0.1250 0.1250 0.3750 (132608 PWs)   bands (ev):

   -18.4420 -18.4249 -18.4104 -18.3992 -18.3779 -18.3634 -18.3565 -18.3126
   -18.3103 -18.3018 -18.2920 -18.2907 -18.2863 -18.2789 -18.2773 -18.2744
   -18.2674 -18.2077 -18.2077 -18.1991 -18.1963 -18.1898 -18.1888 -18.1869
   -18.1852 -18.1808 -18.1784 -18.1737 -18.1721 -18.1682 -18.1673 -18.1641
   -18.1627 -18.1604 -18.1599 -18.1437 -18.1388 -18.1197 -18.1171 -18.1055
   -18.1033 -18.0962 -18.0831 -18.0308 -18.0199 -18.0040 -17.9945 -17.9905
    -9.5054  -9.4291  -9.3574  -9.3063  -9.2584  -9.1572  -9.1371  -9.0792
    -9.0576  -9.0287  -9.0148  -8.9840  -8.9597  -8.9173  -8.8751  -8.8132
    -8.7817  -8.7478  -8.7228  -8.6837  -8.5961  -8.5587  -8.5366  -8.2916
    -5.2449  -5.2207  -5.2057  -5.2011  -5.1949  -5.1870  -5.1794  -5.1767
    -5.1739  -5.1709  -5.1586  -5.1572  -5.1461  -5.1430  -5.1401  -5.1372
    -5.1314  -5.1276  -5.1244  -5.1221  -5.1192  -4.9673  -4.9577  -4.9428
    -4.3010  -4.0772  -3.8024  -3.7830  -3.5834  -3.5093  -3.2441  -2.9836
    -0.8143  -0.6888  -0.5843  -0.5631  -0.5385  -0.4519  -0.3934  -0.3496
    -0.1513  -0.1099  -0.0634   0.1218   0.3904   0.4432   0.4610   0.4993
     0.5492   0.5757   0.6222   0.6354   0.6616   0.7050   0.7302   0.7786
     0.8260   0.8696   0.9175   0.9659   1.0250   1.0823   1.1144   1.1591
     1.2029   1.2277   1.2388   1.2713   1.2976   1.3177   1.3450   1.3787
     1.3935   1.4124   1.4613   1.4793   1.4903   1.5090   1.5288   1.5623
     1.5886   1.5951   1.6311   1.6458   1.6805   1.7296   1.7618   1.7855
     1.8100   1.8409   1.8815   1.9086   1.9528   1.9618   1.9819   2.0177
     2.0761   2.1948   2.2381   2.3482   2.4157   2.5797   2.7343   2.9457

          k = 0.1250 0.3750 0.3750 (132616 PWs)   bands (ev):

   -18.4420 -18.4249 -18.4104 -18.3992 -18.3779 -18.3634 -18.3565 -18.3126
   -18.3103 -18.3018 -18.2920 -18.2907 -18.2863 -18.2789 -18.2773 -18.2744
   -18.2674 -18.2077 -18.2077 -18.1991 -18.1963 -18.1898 -18.1888 -18.1869
   -18.1852 -18.1808 -18.1784 -18.1737 -18.1721 -18.1682 -18.1673 -18.1641
   -18.1627 -18.1604 -18.1599 -18.1437 -18.1388 -18.1197 -18.1171 -18.1055
   -18.1033 -18.0962 -18.0831 -18.0308 -18.0199 -18.0040 -17.9945 -17.9905
    -9.4822  -9.4416  -9.3717  -9.3010  -9.2630  -9.1882  -9.1127  -9.0690
    -9.0584  -9.0398  -9.0102  -8.9827  -8.9559  -8.9233  -8.8738  -8.8199
    -8.7804  -8.7282  -8.7172  -8.6913  -8.5877  -8.5657  -8.5427  -8.2925
    -5.2454  -5.2208  -5.2052  -5.2017  -5.1941  -5.1872  -5.1783  -5.1763
    -5.1738  -5.1714  -5.1590  -5.1568  -5.1472  -5.1425  -5.1404  -5.1370
    -5.1318  -5.1277  -5.1241  -5.1217  -5.1196  -4.9674  -4.9578  -4.9430
    -4.1818  -4.0430  -3.8828  -3.7739  -3.6077  -3.4909  -3.3263  -3.1680
    -0.7311  -0.6437  -0.5321  -0.4850  -0.3394  -0.3029  -0.2705  -0.1776
    -0.0752  -0.0357   0.0695   0.1561   0.3300   0.3794   0.4225   0.4692
     0.4876   0.5067   0.5748   0.5927   0.6041   0.6418   0.6671   0.7167
     0.8198   0.8429   0.8753   0.9590   0.9708   1.0102   1.0607   1.0877
     1.1068   1.1394   1.2176   1.2405   1.2742   1.2989   1.3201   1.3530
     1.3776   1.4023   1.4694   1.5057   1.5086   1.5486   1.5700   1.5849
     1.6151   1.6274   1.6643   1.6821   1.6904   1.7252   1.7555   1.7948
     1.8096   1.8579   1.8742   1.9111   1.9363   1.9590   1.9889   2.0188
     2.0650   2.1211   2.1575   2.1901   2.3950   2.4760   2.5665   2.6669

          k = 0.3750 0.3750 0.3750 (132612 PWs)   bands (ev):

   -18.4420 -18.4249 -18.4104 -18.3992 -18.3779 -18.3634 -18.3565 -18.3126
   -18.3103 -18.3018 -18.2920 -18.2907 -18.2863 -18.2789 -18.2773 -18.2744
   -18.2674 -18.2077 -18.2077 -18.1991 -18.1963 -18.1898 -18.1888 -18.1869
   -18.1852 -18.1808 -18.1784 -18.1737 -18.1721 -18.1682 -18.1673 -18.1641
   -18.1627 -18.1604 -18.1599 -18.1437 -18.1388 -18.1197 -18.1171 -18.1055
   -18.1033 -18.0962 -18.0831 -18.0308 -18.0199 -18.0040 -17.9945 -17.9905
    -9.4758  -9.4321  -9.3720  -9.2985  -9.2747  -9.2128  -9.1264  -9.0782
    -9.0650  -9.0206  -8.9926  -8.9781  -8.9529  -8.9181  -8.8734  -8.8141
    -8.7855  -8.7248  -8.7164  -8.6914  -8.5893  -8.5679  -8.5457  -8.2927
    -5.2455  -5.2209  -5.2053  -5.2022  -5.1940  -5.1875  -5.1800  -5.1762
    -5.1742  -5.1704  -5.1591  -5.1563  -5.1472  -5.1424  -5.1401  -5.1357
    -5.1312  -5.1283  -5.1253  -5.1216  -5.1183  -4.9680  -4.9570  -4.9429
    -4.0670  -3.9444  -3.8401  -3.7458  -3.6992  -3.5644  -3.4825  -3.3436
    -0.4926  -0.3912  -0.3309  -0.3044  -0.2890  -0.2214  -0.1626  -0.1306
    -0.0541   0.0154   0.0848   0.2139   0.2559   0.3459   0.3682   0.4009
     0.4431   0.4700   0.5011   0.5200   0.5456   0.5719   0.6148   0.6516
     0.7984   0.8296   0.8998   0.9266   0.9477   0.9646   0.9987   1.0475
     1.0713   1.1163   1.1554   1.2001   1.2165   1.2693   1.2872   1.3261
     1.3884   1.4002   1.4714   1.5092   1.5330   1.5520   1.5749   1.5933
     1.6115   1.6627   1.6733   1.6992   1.7292   1.7488   1.7865   1.8177
     1.8472   1.8581   1.8804   1.8963   1.9318   1.9462   1.9650   2.0075
     2.0499   2.0674   2.1064   2.1369   2.1866   2.2595   2.3321   2.4060

          k =-0.1250-0.1250 0.1250 (132670 PWs)   bands (ev):

   -18.4420 -18.4249 -18.4104 -18.3992 -18.3779 -18.3634 -18.3565 -18.3126
   -18.3103 -18.3018 -18.2920 -18.2907 -18.2863 -18.2789 -18.2773 -18.2744
   -18.2674 -18.2077 -18.2077 -18.1991 -18.1963 -18.1898 -18.1888 -18.1869
   -18.1852 -18.1808 -18.1784 -18.1737 -18.1721 -18.1682 -18.1673 -18.1641
   -18.1627 -18.1604 -18.1599 -18.1437 -18.1388 -18.1197 -18.1171 -18.1055
   -18.1033 -18.0962 -18.0831 -18.0308 -18.0199 -18.0040 -17.9945 -17.9905
    -9.5187  -9.4137  -9.3651  -9.3201  -9.2272  -9.1692  -9.1124  -9.0928
    -9.0480  -9.0277  -9.0059  -8.9967  -8.9617  -8.9128  -8.8933  -8.8155
    -8.7935  -8.7525  -8.7255  -8.6684  -8.5928  -8.5623  -8.5326  -8.2912
    -5.2452  -5.2207  -5.2064  -5.2008  -5.1950  -5.1864  -5.1822  -5.1780
    -5.1724  -5.1689  -5.1589  -5.1572  -5.1460  -5.1435  -5.1400  -5.1372
    -5.1309  -5.1292  -5.1246  -5.1218  -5.1166  -4.9673  -4.9576  -4.9429
    -4.4226  -3.9557  -3.8985  -3.8815  -3.4082  -3.3737  -3.3356  -2.7785
    -0.8273  -0.7481  -0.6819  -0.6363  -0.5538  -0.5254  -0.4923  -0.4510
    -0.3964  -0.3463  -0.2633  -0.1381   0.4303   0.4472   0.5294   0.5879
     0.6235   0.6514   0.6947   0.7096   0.7565   0.7856   0.8700   0.9223
     0.9465   0.9819   1.0005   1.0167   1.0671   1.0950   1.1421   1.1602
     1.2016   1.2373   1.2605   1.2751   1.2966   1.3167   1.3439   1.3646
     1.3864   1.4015   1.4361   1.4543   1.4887   1.5241   1.5496   1.5624
     1.5895   1.5956   1.6251   1.6459   1.6710   1.6864   1.7045   1.7357
     1.7894   1.8223   1.9243   1.9409   2.0003   2.0351   2.0657   2.0805
     2.1132   2.2028   2.2814   2.3677   2.6149   2.7258   2.8262   3.1755

          k =-0.1250 0.1250-0.1250 (132670 PWs)   bands (ev):

   -18.4420 -18.4249 -18.4104 -18.3992 -18.3779 -18.3634 -18.3565 -18.3126
   -18.3103 -18.3018 -18.2920 -18.2907 -18.2863 -18.2789 -18.2773 -18.2744
   -18.2674 -18.2077 -18.2077 -18.1991 -18.1963 -18.1898 -18.1888 -18.1869
   -18.1852 -18.1808 -18.1784 -18.1737 -18.1721 -18.1682 -18.1673 -18.1641
   -18.1627 -18.1604 -18.1599 -18.1437 -18.1388 -18.1197 -18.1171 -18.1055
   -18.1033 -18.0962 -18.0831 -18.0308 -18.0199 -18.0040 -17.9945 -17.9905
    -9.5184  -9.4128  -9.3697  -9.3165  -9.2298  -9.1597  -9.1211  -9.0909
    -9.0493  -9.0316  -9.0033  -8.9832  -8.9702  -8.9219  -8.8892  -8.8112
    -8.7962  -8.7514  -8.7250  -8.6691  -8.5930  -8.5623  -8.5325  -8.2912
    -5.2451  -5.2208  -5.2063  -5.2009  -5.1950  -5.1865  -5.1817  -5.1776
    -5.1730  -5.1699  -5.1591  -5.1567  -5.1460  -5.1436  -5.1403  -5.1366
    -5.1304  -5.1284  -5.1245  -5.1220  -5.1174  -4.9674  -4.9576  -4.9429
    -4.4228  -3.9570  -3.9029  -3.8749  -3.4115  -3.3602  -3.3460  -2.7794
    -0.8283  -0.7340  -0.6823  -0.6402  -0.5646  -0.5223  -0.4926  -0.4526
    -0.3936  -0.3394  -0.2658  -0.1480   0.4280   0.4463   0.5286   0.5893
     0.6354   0.6557   0.6907   0.7004   0.7709   0.7905   0.8719   0.9122
     0.9306   0.9801   1.0090   1.0434   1.0535   1.0916   1.1244   1.1689
     1.2055   1.2306   1.2384   1.2867   1.3016   1.3239   1.3381   1.3641
     1.3871   1.3987   1.4336   1.4560   1.4817   1.5240   1.5471   1.5645
     1.5816   1.6066   1.6245   1.6483   1.6780   1.6892   1.7069   1.7369
     1.7938   1.8512   1.9061   1.9268   1.9950   2.0381   2.0725   2.0824
     2.1016   2.2138   2.2865   2.3660   2.6125   2.7180   2.8344   3.1612

          k = 0.1250-0.1250-0.1250 (132670 PWs)   bands (ev):

   -18.4420 -18.4249 -18.4104 -18.3992 -18.3779 -18.3634 -18.3565 -18.3126
   -18.3103 -18.3018 -18.2920 -18.2907 -18.2863 -18.2789 -18.2773 -18.2744
   -18.2674 -18.2077 -18.2077 -18.1991 -18.1963 -18.1898 -18.1888 -18.1869
   -18.1852 -18.1808 -18.1784 -18.1737 -18.1721 -18.1682 -18.1673 -18.1641
   -18.1627 -18.1604 -18.1599 -18.1437 -18.1388 -18.1197 -18.1171 -18.1055
   -18.1033 -18.0962 -18.0831 -18.0308 -18.0199 -18.0040 -17.9945 -17.9905
    -9.5180  -9.4168  -9.3645  -9.3177  -9.2252  -9.1659  -9.1261  -9.0892
    -9.0461  -9.0263  -9.0067  -8.9878  -8.9671  -8.9151  -8.8935  -8.8140
    -8.7953  -8.7509  -8.7253  -8.6687  -8.5930  -8.5624  -8.5324  -8.2912
    -5.2452  -5.2207  -5.2064  -5.2008  -5.1955  -5.1859  -5.1820  -5.1782
    -5.1726  -5.1687  -5.1589  -5.1574  -5.1458  -5.1436  -5.1398  -5.1371
    -5.1308  -5.1293  -5.1247  -5.1218  -5.1166  -4.9675  -4.9576  -4.9428
    -4.4224  -3.9696  -3.8951  -3.8668  -3.4242  -3.3779  -3.3189  -2.7800
    -0.8236  -0.7498  -0.6602  -0.6316  -0.5676  -0.5227  -0.5064  -0.4517
    -0.3961  -0.3505  -0.2649  -0.1444   0.4292   0.4455   0.5289   0.5887
     0.6356   0.6572   0.6879   0.7128   0.7595   0.8111   0.8439   0.9215
     0.9524   0.9791   1.0187   1.0299   1.0522   1.0984   1.1296   1.1631
     1.1810   1.2264   1.2586   1.2763   1.2988   1.3153   1.3387   1.3572
     1.3939   1.4102   1.4408   1.4638   1.4878   1.5188   1.5347   1.5734
     1.5804   1.6007   1.6373   1.6502   1.6593   1.6939   1.7226   1.7285
     1.7607   1.8526   1.9074   1.9413   1.9883   2.0421   2.0646   2.0811
     2.1177   2.2162   2.2904   2.3619   2.6144   2.7260   2.8160   3.1591

          k =-0.1250-0.1250 0.3750 (132608 PWs)   bands (ev):

   -18.4420 -18.4249 -18.4104 -18.3992 -18.3779 -18.3634 -18.3565 -18.3126
   -18.3103 -18.3018 -18.2920 -18.2907 -18.2863 -18.2789 -18.2773 -18.2744
   -18.2674 -18.2077 -18.2077 -18.1991 -18.1963 -18.1898 -18.1888 -18.1869
   -18.1852 -18.1808 -18.1784 -18.1737 -18.1721 -18.1682 -18.1673 -18.1641
   -18.1627 -18.1604 -18.1599 -18.1437 -18.1388 -18.1197 -18.1171 -18.1055
   -18.1033 -18.0962 -18.0831 -18.0308 -18.0199 -18.0040 -17.9945 -17.9905
    -9.5066  -9.4243  -9.3622  -9.3085  -9.2540  -9.1629  -9.1247  -9.0918
    -9.0526  -9.0314  -9.0120  -8.9894  -8.9581  -8.9100  -8.8772  -8.8152
    -8.7786  -8.7492  -8.7253  -8.6829  -8.5953  -8.5591  -8.5365  -8.2916
    -5.2448  -5.2207  -5.2059  -5.2012  -5.1944  -5.1875  -5.1802  -5.1770
    -5.1728  -5.1697  -5.1585  -5.1573  -5.1462  -5.1432  -5.1395  -5.1381
    -5.1315  -5.1286  -5.1245  -5.1221  -5.1181  -4.9673  -4.9577  -4.9429
    -4.3023  -4.0694  -3.8251  -3.7763  -3.5722  -3.5059  -3.2535  -2.9787
    -0.8158  -0.6943  -0.5967  -0.5596  -0.5278  -0.4505  -0.4026  -0.3506
    -0.1459  -0.0941  -0.0579   0.1210   0.4019   0.4198   0.4530   0.5150
     0.5311   0.5840   0.6157   0.6371   0.6755   0.6873   0.7399   0.7615
     0.8451   0.8614   0.9294   0.9691   1.0246   1.0667   1.1214   1.1405
     1.1976   1.2289   1.2534   1.2818   1.3053   1.3331   1.3597   1.3872
     1.3962   1.4180   1.4309   1.4491   1.4823   1.5127   1.5350   1.5687
     1.5857   1.5964   1.6343   1.6517   1.6930   1.7287   1.7360   1.7772
     1.8009   1.8294   1.8837   1.9235   1.9488   1.9748   1.9926   2.0200
     2.0690   2.1808   2.2400   2.3413   2.4225   2.5831   2.7383   2.9553

          k =-0.1250 0.1250-0.3750 (132608 PWs)   bands (ev):

   -18.4420 -18.4249 -18.4104 -18.3992 -18.3779 -18.3634 -18.3565 -18.3126
   -18.3103 -18.3018 -18.2920 -18.2907 -18.2863 -18.2789 -18.2773 -18.2744
   -18.2674 -18.2077 -18.2077 -18.1991 -18.1963 -18.1898 -18.1888 -18.1869
   -18.1852 -18.1808 -18.1784 -18.1737 -18.1721 -18.1682 -18.1673 -18.1641
   -18.1627 -18.1604 -18.1599 -18.1437 -18.1388 -18.1197 -18.1171 -18.1055
   -18.1033 -18.0962 -18.0831 -18.0308 -18.0199 -18.0040 -17.9945 -17.9905
    -9.5061  -9.4247  -9.3638  -9.3070  -9.2562  -9.1514  -9.1282  -9.1001
    -9.0551  -9.0299  -9.0067  -8.9845  -8.9632  -8.9150  -8.8765  -8.8122
    -8.7796  -8.7492  -8.7237  -8.6837  -8.5958  -8.5589  -8.5365  -8.2916
    -5.2448  -5.2207  -5.2059  -5.2012  -5.1945  -5.1875  -5.1795  -5.1762
    -5.1738  -5.1710  -5.1587  -5.1568  -5.1462  -5.1433  -5.1401  -5.1373
    -5.1311  -5.1276  -5.1243  -5.1223  -5.1191  -4.9673  -4.9577  -4.9429
    -4.3023  -4.0710  -3.8279  -3.7705  -3.5651  -3.5141  -3.2533  -2.9796
    -0.8165  -0.6818  -0.6020  -0.5606  -0.5372  -0.4492  -0.3857  -0.3580
    -0.1466  -0.1042  -0.0561   0.1234   0.3935   0.4281   0.4624   0.4993
     0.5255   0.5937   0.6129   0.6407   0.6664   0.6876   0.7341   0.7663
     0.8157   0.8793   0.9356   1.0032   1.0361   1.0779   1.1232   1.1411
     1.1675   1.2126   1.2453   1.2996   1.3161   1.3318   1.3563   1.3740
     1.3939   1.4294   1.4356   1.4482   1.4747   1.4915   1.5237   1.5666
     1.5851   1.6006   1.6322   1.6526   1.6881   1.7219   1.7535   1.7838
     1.8358   1.8523   1.8809   1.9055   1.9294   1.9723   1.9910   2.0150
     2.0731   2.1847   2.2515   2.3582   2.3976   2.5868   2.7393   2.9420

          k = 0.1250-0.1250-0.3750 (132608 PWs)   bands (ev):

   -18.4420 -18.4249 -18.4104 -18.3992 -18.3779 -18.3634 -18.3565 -18.3126
   -18.3103 -18.3018 -18.2920 -18.2907 -18.2863 -18.2789 -18.2773 -18.2744
   -18.2674 -18.2077 -18.2077 -18.1991 -18.1963 -18.1898 -18.1888 -18.1869
   -18.1852 -18.1808 -18.1784 -18.1737 -18.1721 -18.1682 -18.1673 -18.1641
   -18.1627 -18.1604 -18.1599 -18.1437 -18.1388 -18.1197 -18.1171 -18.1055
   -18.1033 -18.0962 -18.0831 -18.0308 -18.0199 -18.0040 -17.9945 -17.9905
    -9.5054  -9.4284  -9.3586  -9.3098  -9.2523  -9.1559  -9.1330  -9.0973
    -9.0538  -9.0225  -9.0136  -8.9858  -8.9600  -8.9123  -8.8778  -8.8137
    -8.7812  -8.7478  -8.7240  -8.6834  -8.5958  -8.5590  -8.5364  -8.2916
    -5.2448  -5.2207  -5.2060  -5.2011  -5.1950  -5.1869  -5.1802  -5.1770
    -5.1730  -5.1697  -5.1586  -5.1574  -5.1460  -5.1433  -5.1392  -5.1381
    -5.1314  -5.1285  -5.1247  -5.1220  -5.1181  -4.9674  -4.9577  -4.9428
    -4.3009  -4.0766  -3.8181  -3.7696  -3.5687  -3.5227  -3.2457  -2.9814
    -0.8131  -0.6882  -0.5955  -0.5599  -0.5190  -0.4587  -0.4002  -0.3569
    -0.1510  -0.0948  -0.0732   0.1171   0.3997   0.4346   0.4507   0.5119
     0.5520   0.5821   0.6133   0.6406   0.6601   0.6984   0.7461   0.7695
     0.8189   0.8733   0.9291   1.0021   1.0324   1.0626   1.1075   1.1258
     1.1822   1.2047   1.2615   1.2811   1.3149   1.3324   1.3495   1.3788
     1.3974   1.4361   1.4468   1.4602   1.4798   1.5159   1.5366   1.5428
     1.5801   1.6183   1.6307   1.6458   1.6881   1.7148   1.7542   1.7711
     1.7877   1.8560   1.8712   1.9403   1.9585   1.9658   1.9818   2.0154
     2.0685   2.1951   2.2393   2.3544   2.4171   2.5727   2.7417   2.9367

          k = 0.3750-0.1250 0.1250 (132608 PWs)   bands (ev):

   -18.4420 -18.4249 -18.4104 -18.3992 -18.3779 -18.3633 -18.3565 -18.3126
   -18.3103 -18.3018 -18.2920 -18.2907 -18.2863 -18.2789 -18.2773 -18.2744
   -18.2674 -18.2077 -18.2077 -18.1991 -18.1963 -18.1898 -18.1888 -18.1869
   -18.1852 -18.1808 -18.1784 -18.1737 -18.1721 -18.1682 -18.1673 -18.1641
   -18.1627 -18.1604 -18.1599 -18.1437 -18.1388 -18.1197 -18.1171 -18.1055
   -18.1033 -18.0962 -18.0831 -18.0308 -18.0199 -18.0040 -17.9945 -17.9905
    -9.5072  -9.4048  -9.3855  -9.3136  -9.2371  -9.1756  -9.1246  -9.0973
    -9.0504  -9.0370  -9.0052  -8.9747  -8.9478  -8.9155  -8.8857  -8.8079
    -8.8004  -8.7508  -8.7203  -8.6707  -8.5964  -8.5615  -8.5376  -8.2916
    -5.2448  -5.2208  -5.2059  -5.2010  -5.1948  -5.1863  -5.1808  -5.1760
    -5.1734  -5.1715  -5.1591  -5.1572  -5.1466  -5.1439  -5.1396  -5.1362
    -5.1308  -5.1274  -5.1260  -5.1224  -5.1179  -4.9679  -4.9570  -4.9429
    -4.3010  -4.0743  -3.8134  -3.7749  -3.5645  -3.5248  -3.2527  -2.9828
    -0.7300  -0.6757  -0.6352  -0.5975  -0.4890  -0.4464  -0.4164  -0.3836
    -0.1629  -0.0894  -0.0137   0.0643   0.3164   0.4322   0.4965   0.5090
     0.5296   0.5943   0.6322   0.6506   0.6659   0.7046   0.7111   0.7819
     0.8397   0.8742   0.9274   0.9784   1.0232   1.0562   1.0742   1.1525
     1.1716   1.2175   1.2506   1.2770   1.3033   1.3240   1.3500   1.3698
     1.4065   1.4251   1.4558   1.4767   1.5045   1.5283   1.5508   1.5682
     1.6022   1.6219   1.6490   1.6739   1.6858   1.7059   1.7374   1.7710
     1.7978   1.8343   1.8646   1.9042   1.9227   1.9789   1.9843   2.0621
     2.0954   2.1747   2.2718   2.3244   2.4215   2.4827   2.7664   2.9086

          k =-0.3750-0.1250-0.1250 (132608 PWs)   bands (ev):

   -18.4420 -18.4249 -18.4104 -18.3992 -18.3779 -18.3633 -18.3565 -18.3126
   -18.3103 -18.3018 -18.2920 -18.2907 -18.2863 -18.2789 -18.2773 -18.2744
   -18.2674 -18.2077 -18.2077 -18.1991 -18.1963 -18.1898 -18.1888 -18.1869
   -18.1852 -18.1808 -18.1784 -18.1737 -18.1721 -18.1682 -18.1673 -18.1641
   -18.1627 -18.1604 -18.1599 -18.1437 -18.1388 -18.1197 -18.1171 -18.1055
   -18.1033 -18.0962 -18.0831 -18.0308 -18.0199 -18.0040 -17.9945 -17.9905
    -9.5068  -9.4114  -9.3788  -9.3113  -9.2379  -9.1814  -9.1293  -9.0847
    -9.0543  -9.0360  -9.0050  -8.9783  -8.9438  -8.9170  -8.8853  -8.8091
    -8.8012  -8.7507  -8.7193  -8.6706  -8.5967  -8.5613  -8.5377  -8.2916
    -5.2450  -5.2208  -5.2057  -5.2009  -5.1952  -5.1858  -5.1809  -5.1762
    -5.1733  -5.1715  -5.1591  -5.1575  -5.1466  -5.1434  -5.1395  -5.1363
    -5.1311  -5.1273  -5.1261  -5.1223  -5.1179  -4.9679  -4.9570  -4.9429
    -4.3004  -4.0759  -3.8280  -3.7473  -3.5932  -3.5088  -3.2509  -2.9843
    -0.7274  -0.6602  -0.6313  -0.6066  -0.5000  -0.4532  -0.4320  -0.3663
    -0.1734  -0.0729  -0.0226   0.0808   0.3168   0.4148   0.4889   0.5070
     0.5256   0.5981   0.6320   0.6560   0.6747   0.6936   0.7331   0.7572
     0.8600   0.8856   0.9434   0.9652   1.0187   1.0500   1.0800   1.1304
     1.1653   1.2183   1.2621   1.2880   1.2966   1.3148   1.3359   1.3832
     1.4109   1.4336   1.4435   1.4839   1.5082   1.5217   1.5473   1.5746
     1.6039   1.6212   1.6568   1.6682   1.6823   1.7193   1.7325   1.7637
     1.8005   1.8358   1.8521   1.9160   1.9280   1.9814   1.9904   2.0456
     2.0912   2.1749   2.2754   2.3355   2.4236   2.4748   2.7566   2.9079

          k = 0.3750 0.1250-0.1250 (132608 PWs)   bands (ev):

   -18.4420 -18.4249 -18.4104 -18.3992 -18.3779 -18.3633 -18.3565 -18.3126
   -18.3103 -18.3018 -18.2920 -18.2907 -18.2863 -18.2789 -18.2773 -18.2744
   -18.2674 -18.2077 -18.2077 -18.1991 -18.1963 -18.1898 -18.1888 -18.1869
   -18.1852 -18.1808 -18.1784 -18.1737 -18.1721 -18.1682 -18.1673 -18.1641
   -18.1627 -18.1604 -18.1599 -18.1437 -18.1388 -18.1197 -18.1171 -18.1055
   -18.1033 -18.0962 -18.0831 -18.0308 -18.0199 -18.0040 -17.9945 -17.9905
    -9.5076  -9.4075  -9.3791  -9.3179  -9.2327  -9.1840  -9.1195  -9.0970
    -9.0569  -9.0246  -9.0094  -8.9837  -8.9448  -8.9046  -8.8900  -8.8150
    -8.7955  -8.7519  -8.7209  -8.6699  -8.5962  -8.5616  -8.5377  -8.2916
    -5.2449  -5.2207  -5.2059  -5.2010  -5.1949  -5.1862  -5.1815  -5.1767
    -5.1724  -5.1702  -5.1589  -5.1577  -5.1466  -5.1438  -5.1389  -5.1371
    -5.1312  -5.1281  -5.1264  -5.1219  -5.1171  -4.9678  -4.9570  -4.9429
    -4.3007  -4.0737  -3.8136  -3.7771  -3.5626  -3.5260  -3.2528  -2.9815
    -0.7243  -0.6685  -0.6450  -0.6225  -0.4742  -0.4480  -0.4076  -0.3859
    -0.1678  -0.0902  -0.0088   0.0843   0.3205   0.4098   0.4796   0.5154
     0.5364   0.5835   0.6211   0.6538   0.6785   0.6880   0.7320   0.7719
     0.8402   0.8973   0.9278   0.9840   1.0158   1.0654   1.0718   1.1326
     1.1944   1.2064   1.2623   1.2849   1.3028   1.3098   1.3420   1.3797
     1.3994   1.4251   1.4519   1.4789   1.5139   1.5305   1.5483   1.5723
     1.5932   1.6236   1.6458   1.6731   1.6783   1.7039   1.7393   1.7670
     1.7979   1.8203   1.8534   1.9176   1.9425   1.9830   1.9937   2.0535
     2.0932   2.1635   2.2899   2.2962   2.4247   2.4946   2.7608   2.9192

          k =-0.3750 0.1250 0.1250 (132608 PWs)   bands (ev):

   -18.4420 -18.4249 -18.4104 -18.3992 -18.3779 -18.3633 -18.3565 -18.3126
   -18.3103 -18.3018 -18.2920 -18.2907 -18.2863 -18.2789 -18.2773 -18.2744
   -18.2674 -18.2077 -18.2077 -18.1991 -18.1963 -18.1898 -18.1888 -18.1869
   -18.1852 -18.1808 -18.1784 -18.1737 -18.1721 -18.1682 -18.1673 -18.1641
   -18.1627 -18.1604 -18.1599 -18.1437 -18.1388 -18.1197 -18.1171 -18.1055
   -18.1033 -18.0962 -18.0831 -18.0308 -18.0199 -18.0040 -17.9945 -17.9905
    -9.5068  -9.4075  -9.3846  -9.3116  -9.2304  -9.1843  -9.1301  -9.0920
    -9.0560  -9.0252  -9.0084  -8.9800  -8.9460  -8.9054  -8.8922  -8.8117
    -8.7986  -8.7496  -8.7217  -8.6703  -8.5961  -8.5618  -8.5375  -8.2916
    -5.2449  -5.2207  -5.2059  -5.2009  -5.1952  -5.1858  -5.1814  -5.1769
    -5.1726  -5.1700  -5.1590  -5.1578  -5.1464  -5.1438  -5.1388  -5.1371
    -5.1311  -5.1280  -5.1264  -5.1220  -5.1172  -4.9680  -4.9570  -4.9429
    -4.3007  -4.0748  -3.8295  -3.7488  -3.5916  -3.5072  -3.2539  -2.9822
    -0.7177  -0.6541  -0.6484  -0.6140  -0.4993  -0.4543  -0.4115  -0.3752
    -0.1625  -0.1068   0.0002   0.0654   0.3201   0.4219   0.4862   0.5165
     0.5402   0.5855   0.6230   0.6533   0.6658   0.6989   0.7284   0.7701
     0.8559   0.9088   0.9200   0.9909   1.0250   1.0578   1.0813   1.1131
     1.1510   1.2221   1.2466   1.2872   1.3015   1.3305   1.3367   1.3848
     1.3921   1.4344   1.4656   1.4802   1.4931   1.5358   1.5466   1.5732
     1.6075   1.6194   1.6427   1.6668   1.6890   1.7027   1.7235   1.7668
     1.7904   1.8396   1.8633   1.9104   1.9346   1.9733   1.9909   2.0551
     2.1091   2.1764   2.2899   2.3020   2.4126   2.5005   2.7489   2.9085

          k =-0.1250 0.3750 0.1250 (132608 PWs)   bands (ev):

   -18.4420 -18.4249 -18.4104 -18.3992 -18.3780 -18.3634 -18.3565 -18.3126
   -18.3103 -18.3018 -18.2920 -18.2907 -18.2863 -18.2789 -18.2773 -18.2744
   -18.2674 -18.2077 -18.2077 -18.1991 -18.1963 -18.1898 -18.1888 -18.1869
   -18.1852 -18.1808 -18.1784 -18.1737 -18.1721 -18.1682 -18.1673 -18.1641
   -18.1627 -18.1604 -18.1599 -18.1437 -18.1388 -18.1197 -18.1171 -18.1055
   -18.1033 -18.0962 -18.0831 -18.0308 -18.0199 -18.0040 -17.9945 -17.9905
    -9.4913  -9.4465  -9.3684  -9.2895  -9.2615  -9.1885  -9.0972  -9.0729
    -9.0431  -9.0325  -9.0114  -8.9853  -8.9770  -8.9186  -8.8879  -8.8202
    -8.7988  -8.7347  -8.7105  -8.6786  -8.5861  -8.5670  -8.5394  -8.2924
    -5.2453  -5.2207  -5.2054  -5.2012  -5.1939  -5.1868  -5.1817  -5.1776
    -5.1731  -5.1688  -5.1591  -5.1565  -5.1465  -5.1432  -5.1403  -5.1371
    -5.1317  -5.1295  -5.1245  -5.1216  -5.1172  -4.9677  -4.9577  -4.9431
    -4.3011  -4.1100  -3.8070  -3.7569  -3.5705  -3.5248  -3.2059  -2.9795
    -0.7570  -0.7203  -0.6290  -0.5784  -0.5276  -0.4867  -0.4340  -0.3768
    -0.1737  -0.0929  -0.0055   0.0596   0.3491   0.4423   0.4664   0.4794
     0.5516   0.5815   0.6097   0.6352   0.6863   0.6991   0.7450   0.8212
     0.8469   0.9085   0.9230   0.9906   1.0315   1.0456   1.0972   1.1409
     1.1931   1.2099   1.2554   1.2812   1.2933   1.3254   1.3445   1.3726
     1.4027   1.4241   1.4551   1.4673   1.4898   1.5273   1.5417   1.5755
     1.5933   1.6115   1.6334   1.6469   1.6876   1.7175   1.7362   1.7687
     1.8405   1.8602   1.8801   1.9072   1.9298   1.9956   2.0458   2.0792
     2.1042   2.1226   2.2810   2.3253   2.4360   2.5204   2.7833   2.9156

          k =-0.1250-0.3750-0.1250 (132608 PWs)   bands (ev):

   -18.4420 -18.4249 -18.4104 -18.3992 -18.3780 -18.3634 -18.3565 -18.3126
   -18.3103 -18.3018 -18.2920 -18.2907 -18.2863 -18.2789 -18.2773 -18.2744
   -18.2674 -18.2077 -18.2077 -18.1991 -18.1963 -18.1898 -18.1888 -18.1869
   -18.1852 -18.1808 -18.1784 -18.1737 -18.1721 -18.1682 -18.1673 -18.1641
   -18.1627 -18.1604 -18.1599 -18.1437 -18.1388 -18.1197 -18.1171 -18.1055
   -18.1033 -18.0962 -18.0831 -18.0308 -18.0199 -18.0040 -17.9945 -17.9905
    -9.4915  -9.4468  -9.3653  -9.2959  -9.2588  -9.1888  -9.0963  -9.0649
    -9.0493  -9.0317  -9.0095  -8.9962  -8.9659  -8.9279  -8.8838  -8.8175
    -8.8016  -8.7339  -8.7102  -8.6785  -8.5866  -8.5667  -8.5395  -8.2924
    -5.2454  -5.2207  -5.2053  -5.2012  -5.1938  -5.1867  -5.1810  -5.1777
    -5.1735  -5.1700  -5.1591  -5.1563  -5.1467  -5.1431  -5.1406  -5.1366
    -5.1316  -5.1287  -5.1244  -5.1216  -5.1180  -4.9676  -4.9577  -4.9431
    -4.3007  -4.1105  -3.8059  -3.7575  -3.5752  -3.5194  -3.2056  -2.9811
    -0.7617  -0.7082  -0.6338  -0.5955  -0.5199  -0.4829  -0.4247  -0.3761
    -0.1901  -0.0916   0.0170   0.0577   0.3417   0.4328   0.4656   0.4905
     0.5627   0.5762   0.6093   0.6354   0.6712   0.6918   0.7456   0.8149
     0.8578   0.8919   0.9288   0.9892   1.0365   1.0554   1.0993   1.1425
     1.1569   1.2365   1.2586   1.2759   1.2999   1.3227   1.3477   1.3790
     1.3966   1.4188   1.4489   1.4725   1.4944   1.5250   1.5505   1.5692
     1.5827   1.6240   1.6482   1.6743   1.6801   1.6998   1.7552   1.7752
     1.8171   1.8433   1.8692   1.9052   1.9557   2.0026   2.0347   2.0737
     2.1007   2.1229   2.2567   2.3482   2.4522   2.5026   2.7961   2.9093

          k = 0.1250 0.3750-0.1250 (132608 PWs)   bands (ev):

   -18.4420 -18.4249 -18.4104 -18.3992 -18.3780 -18.3634 -18.3565 -18.3126
   -18.3103 -18.3018 -18.2920 -18.2907 -18.2863 -18.2789 -18.2773 -18.2744
   -18.2674 -18.2077 -18.2077 -18.1991 -18.1963 -18.1898 -18.1888 -18.1869
   -18.1852 -18.1808 -18.1784 -18.1737 -18.1721 -18.1682 -18.1673 -18.1641
   -18.1627 -18.1604 -18.1599 -18.1437 -18.1388 -18.1197 -18.1171 -18.1055
   -18.1033 -18.0962 -18.0831 -18.0308 -18.0199 -18.0040 -17.9945 -17.9905
    -9.4935  -9.4423  -9.3692  -9.2935  -9.2600  -9.1899  -9.0869  -9.0728
    -9.0511  -9.0298  -9.0110  -8.9988  -8.9682  -8.9166  -8.8871  -8.8216
    -8.7981  -8.7346  -8.7121  -8.6777  -8.5858  -8.5670  -8.5396  -8.2924
    -5.2453  -5.2207  -5.2054  -5.2013  -5.1933  -5.1875  -5.1819  -5.1775
    -5.1729  -5.1690  -5.1590  -5.1563  -5.1467  -5.1432  -5.1403  -5.1372
    -5.1318  -5.1295  -5.1245  -5.1216  -5.1172  -4.9675  -4.9577  -4.9431
    -4.3022  -4.1053  -3.8042  -3.7744  -3.5475  -3.5329  -3.2127  -2.9760
    -0.7614  -0.7110  -0.6522  -0.5852  -0.5217  -0.4813  -0.4295  -0.3748
    -0.1721  -0.0794   0.0152   0.0577   0.3264   0.4299   0.4674   0.4842
     0.5689   0.5786   0.6033   0.6415   0.6618   0.6949   0.7571   0.8078
     0.8454   0.9041   0.9305   0.9891   1.0133   1.0625   1.1111   1.1438
     1.1852   1.2324   1.2555   1.2721   1.2932   1.3328   1.3639   1.3729
     1.4044   1.4246   1.4372   1.4701   1.4920   1.5052   1.5419   1.5654
     1.5860   1.6133   1.6446   1.6603   1.6936   1.7080   1.7457   1.7694
     1.8086   1.8526   1.8820   1.9190   1.9617   1.9975   2.0519   2.0645
     2.0934   2.1181   2.2350   2.3686   2.4463   2.5072   2.7861   2.9293

          k = 0.1250-0.3750 0.1250 (132608 PWs)   bands (ev):

   -18.4420 -18.4249 -18.4104 -18.3992 -18.3780 -18.3634 -18.3565 -18.3126
   -18.3103 -18.3018 -18.2920 -18.2907 -18.2863 -18.2789 -18.2773 -18.2744
   -18.2674 -18.2077 -18.2077 -18.1991 -18.1963 -18.1898 -18.1888 -18.1869
   -18.1852 -18.1808 -18.1784 -18.1737 -18.1721 -18.1682 -18.1673 -18.1641
   -18.1627 -18.1604 -18.1599 -18.1437 -18.1388 -18.1197 -18.1171 -18.1055
   -18.1033 -18.0962 -18.0831 -18.0308 -18.0199 -18.0040 -17.9945 -17.9905
    -9.4931  -9.4416  -9.3720  -9.2957  -9.2557  -9.1871  -9.0892  -9.0744
    -9.0507  -9.0375  -9.0006  -8.9913  -8.9745  -8.9255  -8.8841  -8.8161
    -8.8015  -8.7317  -8.7139  -8.6782  -8.5856  -8.5675  -8.5393  -8.2924
    -5.2452  -5.2207  -5.2055  -5.2013  -5.1933  -5.1873  -5.1811  -5.1773
    -5.1735  -5.1700  -5.1592  -5.1560  -5.1467  -5.1435  -5.1407  -5.1366
    -5.1313  -5.1287  -5.1243  -5.1218  -5.1180  -4.9676  -4.9577  -4.9431
    -4.3025  -4.1049  -3.8095  -3.7691  -3.5512  -3.5272  -3.2145  -2.9768
    -0.7582  -0.7084  -0.6407  -0.5974  -0.5360  -0.4709  -0.4363  -0.3633
    -0.1637  -0.0756  -0.0102   0.0551   0.3320   0.4320   0.4647   0.4795
     0.5544   0.5915   0.6135   0.6401   0.6673   0.6951   0.7559   0.8143
     0.8553   0.8868   0.9448   0.9766   1.0391   1.0532   1.0770   1.1489
     1.1810   1.2367   1.2552   1.2758   1.3057   1.3455   1.3578   1.3765
     1.3853   1.4045   1.4239   1.4577   1.4831   1.5191   1.5598   1.5801
     1.6028   1.6286   1.6550   1.6599   1.6912   1.6994   1.7393   1.7602
     1.8273   1.8481   1.8869   1.9079   1.9354   2.0006   2.0551   2.0754
     2.0893   2.1217   2.2532   2.3534   2.4198   2.5332   2.7940   2.9133

          k =-0.1250-0.3750 0.3750 (132616 PWs)   bands (ev):

   -18.4420 -18.4249 -18.4104 -18.3992 -18.3779 -18.3634 -18.3565 -18.3126
   -18.3103 -18.3018 -18.2920 -18.2907 -18.2863 -18.2789 -18.2773 -18.2744
   -18.2674 -18.2077 -18.2077 -18.1991 -18.1963 -18.1898 -18.1888 -18.1869
   -18.1852 -18.1808 -18.1784 -18.1737 -18.1721 -18.1682 -18.1673 -18.1641
   -18.1627 -18.1604 -18.1599 -18.1437 -18.1388 -18.1197 -18.1171 -18.1055
   -18.1033 -18.0962 -18.0831 -18.0308 -18.0199 -18.0040 -17.9945 -17.9905
    -9.4851  -9.4347  -9.3779  -9.2971  -9.2647  -9.1903  -9.1044  -9.0776
    -9.0578  -9.0376  -9.0123  -8.9847  -8.9580  -8.9137  -8.8758  -8.8225
    -8.7779  -8.7291  -8.7198  -8.6902  -8.5868  -8.5659  -8.5428  -8.2925
    -5.2453  -5.2208  -5.2054  -5.2018  -5.1936  -5.1879  -5.1798  -5.1761
    -5.1728  -5.1702  -5.1589  -5.1568  -5.1472  -5.1425  -5.1397  -5.1380
    -5.1319  -5.1287  -5.1242  -5.1217  -5.1185  -4.9673  -4.9578  -4.9430
    -4.1888  -3.9944  -3.9516  -3.7238  -3.6530  -3.4303  -3.3767  -3.1551
    -0.7312  -0.6498  -0.5252  -0.4852  -0.3768  -0.3129  -0.2531  -0.1705
    -0.0444  -0.0024   0.0551   0.1623   0.2883   0.3746   0.4419   0.4582
     0.4963   0.5063   0.5638   0.5805   0.6166   0.6278   0.6825   0.7024
     0.8269   0.8650   0.8862   0.9394   0.9732   1.0035   1.0588   1.0855
     1.1258   1.1450   1.2012   1.2341   1.2688   1.3100   1.3262   1.3618
     1.3917   1.4131   1.4580   1.4785   1.5104   1.5425   1.5594   1.5888
     1.6021   1.6396   1.6487   1.6793   1.7076   1.7351   1.7689   1.7863
     1.8175   1.8353   1.8644   1.9156   1.9308   1.9844   1.9921   2.0115
     2.0696   2.0985   2.1509   2.2104   2.3864   2.4967   2.5467   2.6826

          k =-0.1250 0.3750-0.3750 (132616 PWs)   bands (ev):

   -18.4420 -18.4249 -18.4104 -18.3992 -18.3779 -18.3634 -18.3565 -18.3126
   -18.3103 -18.3018 -18.2920 -18.2907 -18.2863 -18.2789 -18.2773 -18.2744
   -18.2674 -18.2077 -18.2077 -18.1991 -18.1963 -18.1898 -18.1888 -18.1869
   -18.1852 -18.1808 -18.1784 -18.1737 -18.1721 -18.1682 -18.1673 -18.1641
   -18.1627 -18.1604 -18.1599 -18.1437 -18.1388 -18.1197 -18.1171 -18.1055
   -18.1033 -18.0962 -18.0831 -18.0308 -18.0199 -18.0040 -17.9945 -17.9905
    -9.4845  -9.4343  -9.3798  -9.3010  -9.2608  -9.1853  -9.1036  -9.0789
    -9.0702  -9.0342  -9.0025  -8.9838  -8.9607  -8.9199  -8.8753  -8.8189
    -8.7792  -8.7254  -8.7217  -8.6910  -8.5872  -8.5661  -8.5425  -8.2925
    -5.2452  -5.2208  -5.2055  -5.2018  -5.1938  -5.1877  -5.1786  -5.1756
    -5.1738  -5.1715  -5.1590  -5.1565  -5.1473  -5.1428  -5.1403  -5.1370
    -5.1315  -5.1277  -5.1241  -5.1218  -5.1195  -4.9674  -4.9578  -4.9430
    -4.1883  -3.9961  -3.9534  -3.7213  -3.6483  -3.4296  -3.3819  -3.1552
    -0.7315  -0.6411  -0.5297  -0.4901  -0.3809  -0.2990  -0.2550  -0.1685
    -0.0404  -0.0086   0.0539   0.1603   0.2797   0.3673   0.4317   0.4657
     0.4884   0.5049   0.5567   0.5918   0.6159   0.6460   0.6724   0.7123
     0.8137   0.8701   0.8901   0.9483   0.9825   1.0122   1.0497   1.0908
     1.1144   1.1661   1.1942   1.2327   1.2755   1.2881   1.3373   1.3521
     1.3854   1.4194   1.4412   1.4727   1.4974   1.5525   1.5686   1.5932
     1.6175   1.6323   1.6518   1.6735   1.6974   1.7471   1.7611   1.7969
     1.8061   1.8474   1.8749   1.9091   1.9381   1.9701   1.9966   2.0014
     2.0763   2.0976   2.1662   2.2092   2.3719   2.4971   2.5627   2.6659

          k = 0.1250-0.3750-0.3750 (132616 PWs)   bands (ev):

   -18.4420 -18.4249 -18.4104 -18.3992 -18.3779 -18.3634 -18.3565 -18.3126
   -18.3103 -18.3018 -18.2920 -18.2907 -18.2863 -18.2789 -18.2773 -18.2744
   -18.2674 -18.2077 -18.2077 -18.1991 -18.1963 -18.1898 -18.1888 -18.1869
   -18.1852 -18.1808 -18.1784 -18.1737 -18.1721 -18.1682 -18.1673 -18.1641
   -18.1627 -18.1604 -18.1599 -18.1437 -18.1388 -18.1197 -18.1171 -18.1055
   -18.1033 -18.0962 -18.0831 -18.0308 -18.0199 -18.0040 -17.9945 -17.9905
    -9.4819  -9.4418  -9.3735  -9.2972  -9.2650  -9.1867  -9.1105  -9.0781
    -9.0633  -9.0309  -9.0099  -8.9809  -8.9600  -8.9162  -8.8770  -8.8208
    -8.7792  -8.7314  -8.7147  -8.6917  -8.5877  -8.5656  -8.5427  -8.2925
    -5.2453  -5.2208  -5.2054  -5.2018  -5.1942  -5.1873  -5.1797  -5.1760
    -5.1730  -5.1701  -5.1590  -5.1569  -5.1471  -5.1426  -5.1395  -5.1380
    -5.1318  -5.1287  -5.1244  -5.1216  -5.1186  -4.9675  -4.9578  -4.9430
    -4.1815  -4.0432  -3.8880  -3.7676  -3.6024  -3.4986  -3.3289  -3.1639
    -0.7294  -0.6469  -0.5278  -0.4764  -0.3525  -0.3053  -0.2731  -0.1820
    -0.0820  -0.0195   0.0683   0.1483   0.3362   0.3835   0.4342   0.4602
     0.4781   0.5119   0.5671   0.5896   0.6131   0.6350   0.6778   0.7043
     0.8324   0.8697   0.8798   0.9597   0.9673   1.0208   1.0296   1.0883
     1.1111   1.1350   1.2106   1.2337   1.2608   1.3019   1.3330   1.3515
     1.3939   1.4312   1.4641   1.4805   1.5053   1.5305   1.5727   1.5866
     1.5929   1.6368   1.6592   1.6841   1.7017   1.7240   1.7446   1.7823
     1.8350   1.8539   1.8928   1.9094   1.9287   1.9636   1.9839   2.0105
     2.0716   2.1179   2.1609   2.2070   2.3795   2.4917   2.5608   2.6592

          k = 0.3750 0.1250-0.3750 (132616 PWs)   bands (ev):

   -18.4420 -18.4249 -18.4104 -18.3992 -18.3779 -18.3634 -18.3565 -18.3126
   -18.3103 -18.3018 -18.2920 -18.2907 -18.2863 -18.2789 -18.2773 -18.2744
   -18.2674 -18.2077 -18.2077 -18.1991 -18.1963 -18.1898 -18.1888 -18.1869
   -18.1852 -18.1808 -18.1784 -18.1737 -18.1721 -18.1682 -18.1673 -18.1641
   -18.1627 -18.1604 -18.1599 -18.1437 -18.1388 -18.1197 -18.1171 -18.1055
   -18.1033 -18.0962 -18.0831 -18.0308 -18.0199 -18.0040 -17.9945 -17.9905
    -9.4975  -9.4111  -9.3786  -9.3129  -9.2474  -9.1843  -9.1389  -9.0948
    -9.0579  -9.0396  -8.9947  -8.9764  -8.9427  -8.9074  -8.8761  -8.8133
    -8.7827  -8.7495  -8.7215  -8.6825  -8.5968  -8.5594  -8.5410  -8.2921
    -5.2446  -5.2208  -5.2059  -5.2014  -5.1944  -5.1873  -5.1814  -5.1768
    -5.1733  -5.1690  -5.1587  -5.1570  -5.1464  -5.1432  -5.1399  -5.1366
    -5.1312  -5.1292  -5.1260  -5.1219  -5.1170  -4.9677  -4.9570  -4.9429
    -4.1832  -3.9776  -3.9241  -3.7489  -3.6447  -3.4623  -3.3986  -3.1661
    -0.7075  -0.6089  -0.4998  -0.4416  -0.3875  -0.2959  -0.2197  -0.1508
    -0.0818  -0.0375   0.0598   0.1820   0.3005   0.3633   0.4239   0.4452
     0.4981   0.5123   0.5629   0.5912   0.6172   0.6394   0.6661   0.6929
     0.7800   0.8595   0.8877   0.9256   0.9519   1.0077   1.0526   1.0632
     1.1485   1.1698   1.1977   1.2376   1.2795   1.3192   1.3486   1.3529
     1.3932   1.4155   1.4513   1.4568   1.4982   1.5158   1.5703   1.6017
     1.6194   1.6437   1.6576   1.6735   1.6936   1.7317   1.7713   1.7936
     1.8128   1.8274   1.8823   1.8985   1.9190   1.9701   1.9854   2.0175
     2.0511   2.1037   2.1245   2.2054   2.3251   2.4894   2.5259   2.6770

          k =-0.3750-0.1250-0.3750 (132616 PWs)   bands (ev):

   -18.4420 -18.4249 -18.4104 -18.3992 -18.3779 -18.3634 -18.3565 -18.3126
   -18.3103 -18.3018 -18.2920 -18.2907 -18.2863 -18.2789 -18.2773 -18.2744
   -18.2674 -18.2077 -18.2077 -18.1991 -18.1963 -18.1898 -18.1888 -18.1869
   -18.1852 -18.1808 -18.1784 -18.1737 -18.1721 -18.1682 -18.1673 -18.1641
   -18.1627 -18.1604 -18.1599 -18.1437 -18.1388 -18.1197 -18.1171 -18.1055
   -18.1033 -18.0962 -18.0831 -18.0308 -18.0199 -18.0040 -17.9945 -17.9905
    -9.4963  -9.4162  -9.3770  -9.3059  -9.2530  -9.1808  -9.1475  -9.0866
    -9.0531  -9.0470  -8.9955  -8.9704  -8.9420  -8.9171  -8.8740  -8.8096
    -8.7868  -8.7476  -8.7198  -8.6834  -8.5974  -8.5591  -8.5411  -8.2921
    -5.2447  -5.2208  -5.2056  -5.2013  -5.1947  -5.1869  -5.1804  -5.1772
    -5.1737  -5.1702  -5.1589  -5.1568  -5.1463  -5.1429  -5.1403  -5.1360
    -5.1312  -5.1285  -5.1256  -5.1221  -5.1179  -4.9678  -4.9570  -4.9429
    -4.1813  -3.9980  -3.9052  -3.7235  -3.6751  -3.4634  -3.3884  -3.1712
    -0.7037  -0.6055  -0.4993  -0.4372  -0.3816  -0.2890  -0.2385  -0.1539
    -0.0882  -0.0537   0.0814   0.1672   0.2912   0.3659   0.4289   0.4643
     0.4697   0.5325   0.5696   0.5983   0.6197   0.6518   0.6589   0.6973
     0.7717   0.8398   0.8906   0.9156   0.9751   0.9979   1.0443   1.0864
     1.1224   1.1657   1.2051   1.2392   1.2839   1.3103   1.3244   1.3484
     1.3982   1.4193   1.4516   1.4904   1.5069   1.5255   1.5508   1.5967
     1.6170   1.6371   1.6529   1.6752   1.7044   1.7412   1.7711   1.7982
     1.8146   1.8467   1.8643   1.9037   1.9304   1.9551   1.9641   2.0214
     2.0470   2.1142   2.1539   2.1828   2.3420   2.4534   2.5372   2.6710

          k = 0.3750-0.1250 0.3750 (132616 PWs)   bands (ev):

   -18.4420 -18.4249 -18.4104 -18.3992 -18.3779 -18.3634 -18.3565 -18.3126
   -18.3103 -18.3018 -18.2920 -18.2907 -18.2863 -18.2789 -18.2773 -18.2744
   -18.2674 -18.2077 -18.2077 -18.1991 -18.1963 -18.1898 -18.1888 -18.1869
   -18.1852 -18.1808 -18.1784 -18.1737 -18.1721 -18.1682 -18.1673 -18.1641
   -18.1627 -18.1604 -18.1599 -18.1437 -18.1388 -18.1197 -18.1171 -18.1055
   -18.1033 -18.0962 -18.0831 -18.0308 -18.0199 -18.0040 -17.9945 -17.9905
    -9.4969  -9.4113  -9.3808  -9.3105  -9.2514  -9.1749  -9.1414  -9.1000
    -9.0547  -9.0429  -8.9953  -8.9676  -8.9456  -8.9145  -8.8756  -8.8091
    -8.7844  -8.7495  -8.7198  -8.6835  -8.5974  -8.5592  -8.5410  -8.2921
    -5.2445  -5.2208  -5.2059  -5.2014  -5.1945  -5.1873  -5.1805  -5.1770
    -5.1734  -5.1703  -5.1590  -5.1564  -5.1464  -5.1433  -5.1402  -5.1360
    -5.1310  -5.1284  -5.1258  -5.1220  -5.1178  -4.9678  -4.9570  -4.9429
    -4.1821  -3.9923  -3.9091  -3.7498  -3.6404  -3.4689  -3.3960  -3.1672
    -0.7068  -0.6120  -0.5011  -0.4276  -0.3740  -0.2908  -0.2487  -0.1488
    -0.0866  -0.0451   0.0852   0.1522   0.3028   0.3667   0.4240   0.4552
     0.4806   0.5276   0.5649   0.5981   0.6124   0.6374   0.6605   0.6945
     0.7938   0.8333   0.8990   0.9107   0.9693   1.0044   1.0468   1.1061
     1.1368   1.1524   1.2081   1.2290   1.2893   1.3022   1.3341   1.3708
     1.3869   1.4219   1.4312   1.4628   1.5032   1.5497   1.5617   1.5790
     1.6107   1.6286   1.6613   1.6802   1.6989   1.7328   1.7760   1.7903
     1.8256   1.8507   1.8730   1.9025   1.9128   1.9566   1.9718   2.0139
     2.0542   2.0980   2.1540   2.2068   2.3355   2.4592   2.5498   2.6601

          k =-0.3750 0.1250 0.3750 (132616 PWs)   bands (ev):

   -18.4420 -18.4249 -18.4104 -18.3992 -18.3779 -18.3634 -18.3565 -18.3126
   -18.3103 -18.3018 -18.2920 -18.2907 -18.2863 -18.2789 -18.2773 -18.2744
   -18.2674 -18.2077 -18.2077 -18.1991 -18.1963 -18.1898 -18.1888 -18.1869
   -18.1852 -18.1808 -18.1784 -18.1737 -18.1721 -18.1682 -18.1673 -18.1641
   -18.1627 -18.1604 -18.1599 -18.1437 -18.1388 -18.1197 -18.1171 -18.1055
   -18.1033 -18.0962 -18.0831 -18.0308 -18.0199 -18.0040 -17.9945 -17.9905
    -9.4964  -9.4142  -9.3795  -9.3092  -9.2456  -9.1827  -9.1442  -9.0963
    -9.0623  -9.0328  -8.9952  -8.9735  -8.9418  -8.9110  -8.8767  -8.8109
    -8.7858  -8.7475  -8.7212  -8.6831  -8.5971  -8.5595  -8.5408  -8.2921
    -5.2446  -5.2208  -5.2059  -5.2013  -5.1949  -5.1868  -5.1814  -5.1767
    -5.1736  -5.1688  -5.1588  -5.1571  -5.1462  -5.1432  -5.1398  -5.1367
    -5.1312  -5.1290  -5.1261  -5.1220  -5.1170  -4.9678  -4.9570  -4.9428
    -4.1816  -3.9869  -3.9248  -3.7133  -3.6718  -3.4624  -3.3987  -3.1665
    -0.6988  -0.6065  -0.5041  -0.4268  -0.3967  -0.2973  -0.2208  -0.1596
    -0.0969  -0.0314   0.0513   0.1723   0.3031   0.3609   0.4234   0.4543
     0.5044   0.5297   0.5699   0.6009   0.6146   0.6260   0.6490   0.7114
     0.7728   0.8651   0.8889   0.9487   0.9707   1.0116   1.0276   1.0779
     1.0911   1.1660   1.2005   1.2370   1.3034   1.3110   1.3301   1.3520
     1.3805   1.4226   1.4441   1.4831   1.5177   1.5450   1.5721   1.5838
     1.6020   1.6384   1.6498   1.6721   1.6936   1.7260   1.7570   1.7922
     1.8173   1.8338   1.8851   1.9038   1.9437   1.9658   1.9759   2.0048
     2.0390   2.1173   2.1484   2.2126   2.3174   2.4939   2.5212   2.6561

          k = 0.3750-0.3750 0.1250 (132616 PWs)   bands (ev):

   -18.4420 -18.4249 -18.4104 -18.3992 -18.3780 -18.3633 -18.3565 -18.3126
   -18.3103 -18.3018 -18.2920 -18.2907 -18.2863 -18.2789 -18.2773 -18.2744
   -18.2674 -18.2077 -18.2077 -18.1991 -18.1963 -18.1898 -18.1888 -18.1869
   -18.1852 -18.1808 -18.1784 -18.1737 -18.1721 -18.1682 -18.1673 -18.1641
   -18.1627 -18.1604 -18.1599 -18.1437 -18.1388 -18.1197 -18.1171 -18.1055
   -18.1033 -18.0962 -18.0831 -18.0308 -18.0199 -18.0040 -17.9945 -17.9905
    -9.4842  -9.4322  -9.3752  -9.3082  -9.2594  -9.2048  -9.0963  -9.0786
    -9.0520  -9.0339  -9.0027  -8.9769  -8.9675  -8.9149  -8.8840  -8.8129
    -8.8029  -8.7239  -8.7161  -8.6798  -8.5884  -8.5696  -8.5423  -8.2925
    -5.2454  -5.2208  -5.2054  -5.2016  -5.1934  -5.1874  -5.1802  -5.1761
    -5.1739  -5.1713  -5.1591  -5.1560  -5.1472  -5.1435  -5.1397  -5.1362
    -5.1312  -5.1276  -5.1259  -5.1220  -5.1184  -4.9682  -4.9570  -4.9431
    -4.1838  -4.0078  -3.9255  -3.7806  -3.6032  -3.4265  -3.3869  -3.1639
    -0.6551  -0.6092  -0.5899  -0.5269  -0.3750  -0.3137  -0.2168  -0.1203
    -0.0768  -0.0133   0.0613   0.1164   0.2716   0.3696   0.4328   0.4548
     0.4789   0.5438   0.5575   0.5844   0.6217   0.6576   0.6666   0.7013
     0.7725   0.8246   0.8725   0.9053   0.9507   0.9771   1.0564   1.0747
     1.1487   1.2101   1.2458   1.2696   1.2855   1.3254   1.3455   1.3659
     1.4102   1.4210   1.4412   1.4755   1.4828   1.5201   1.5595   1.5879
     1.6193   1.6452   1.6694   1.6966   1.7263   1.7395   1.7559   1.8010
     1.8217   1.8503   1.8597   1.8972   1.9264   1.9653   1.9824   2.0208
     2.0834   2.1167   2.1444   2.2153   2.3352   2.4475   2.5655   2.6336

          k =-0.3750-0.3750-0.1250 (132616 PWs)   bands (ev):

   -18.4420 -18.4249 -18.4104 -18.3992 -18.3780 -18.3633 -18.3565 -18.3126
   -18.3103 -18.3018 -18.2920 -18.2907 -18.2863 -18.2789 -18.2773 -18.2744
   -18.2674 -18.2077 -18.2077 -18.1991 -18.1963 -18.1898 -18.1888 -18.1869
   -18.1852 -18.1808 -18.1784 -18.1737 -18.1721 -18.1682 -18.1673 -18.1641
   -18.1627 -18.1604 -18.1599 -18.1437 -18.1388 -18.1197 -18.1171 -18.1055
   -18.1033 -18.0962 -18.0831 -18.0308 -18.0199 -18.0040 -17.9945 -17.9905
    -9.4828  -9.4371  -9.3701  -9.3072  -9.2605  -9.2075  -9.1051  -9.0629
    -9.0549  -9.0348  -9.0000  -8.9871  -8.9608  -8.9153  -8.8841  -8.8132
    -8.8039  -8.7263  -8.7127  -8.6799  -8.5889  -8.5692  -8.5425  -8.2925
    -5.2455  -5.2208  -5.2051  -5.2016  -5.1938  -5.1869  -5.1802  -5.1765
    -5.1738  -5.1713  -5.1592  -5.1563  -5.1471  -5.1430  -5.1395  -5.1363
    -5.1316  -5.1275  -5.1260  -5.1219  -5.1185  -4.9682  -4.9570  -4.9430
    -4.1818  -4.0136  -3.9282  -3.7631  -3.6163  -3.4421  -3.3650  -3.1683
    -0.6476  -0.6197  -0.5765  -0.5207  -0.4169  -0.2374  -0.2187  -0.1723
    -0.1359   0.0195   0.0794   0.1465   0.2731   0.3657   0.4031   0.4665
     0.4921   0.5182   0.5615   0.5735   0.6340   0.6577   0.6772   0.7101
     0.7437   0.8487   0.8821   0.9031   0.9529   0.9667   1.0507   1.0871
     1.1473   1.1854   1.2258   1.2703   1.2913   1.3239   1.3680   1.3767
     1.3864   1.4305   1.4557   1.4805   1.5024   1.5265   1.5452   1.5781
     1.6031   1.6362   1.6631   1.7017   1.7144   1.7528   1.7781   1.7942
     1.8138   1.8555   1.8672   1.8962   1.9383   1.9708   1.9861   2.0034
     2.0794   2.1018   2.1404   2.2435   2.3510   2.4138   2.5621   2.6371

          k = 0.3750 0.3750-0.1250 (132616 PWs)   bands (ev):

   -18.4420 -18.4249 -18.4104 -18.3992 -18.3780 -18.3633 -18.3565 -18.3126
   -18.3103 -18.3018 -18.2920 -18.2907 -18.2863 -18.2789 -18.2773 -18.2744
   -18.2674 -18.2077 -18.2077 -18.1991 -18.1963 -18.1898 -18.1888 -18.1869
   -18.1852 -18.1808 -18.1784 -18.1737 -18.1721 -18.1682 -18.1673 -18.1641
   -18.1627 -18.1604 -18.1599 -18.1437 -18.1388 -18.1197 -18.1171 -18.1055
   -18.1033 -18.0962 -18.0831 -18.0308 -18.0199 -18.0040 -17.9945 -17.9905
    -9.4846  -9.4336  -9.3701  -9.3098  -9.2605  -9.2073  -9.0968  -9.0757
    -9.0549  -9.0226  -9.0088  -8.9891  -8.9616  -8.9042  -8.8878  -8.8206
    -8.7979  -8.7286  -8.7126  -8.6793  -8.5885  -8.5692  -8.5426  -8.2925
    -5.2454  -5.2207  -5.2053  -5.2017  -5.1933  -5.1876  -5.1811  -5.1766
    -5.1730  -5.1701  -5.1590  -5.1563  -5.1471  -5.1433  -5.1391  -5.1372
    -5.1316  -5.1284  -5.1262  -5.1216  -5.1176  -4.9681  -4.9570  -4.9431
    -4.1832  -4.0080  -3.9259  -3.7808  -3.6003  -3.4468  -3.3693  -3.1635
    -0.6450  -0.6193  -0.5865  -0.5438  -0.3968  -0.2398  -0.2026  -0.1729
    -0.1327   0.0148   0.0913   0.1455   0.2772   0.3656   0.3978   0.4564
     0.4840   0.5205   0.5703   0.5803   0.6120   0.6502   0.6793   0.7065
     0.7680   0.8312   0.8703   0.9074   0.9482   0.9926   1.0387   1.1010
     1.1497   1.2009   1.2409   1.2643   1.3015   1.3248   1.3406   1.3826
     1.4022   1.4158   1.4386   1.4766   1.5019   1.5244   1.5496   1.5797
     1.5986   1.6270   1.6635   1.6850   1.7286   1.7422   1.7757   1.7896
     1.8153   1.8492   1.8898   1.9116   1.9430   1.9716   1.9880   2.0075
     2.0586   2.1045   2.1306   2.2389   2.3553   2.4204   2.5596   2.6511

          k =-0.3750 0.3750 0.1250 (132616 PWs)   bands (ev):

   -18.4420 -18.4249 -18.4104 -18.3992 -18.3780 -18.3633 -18.3565 -18.3126
   -18.3103 -18.3018 -18.2920 -18.2907 -18.2863 -18.2789 -18.2773 -18.2744
   -18.2674 -18.2077 -18.2077 -18.1991 -18.1963 -18.1898 -18.1888 -18.1869
   -18.1852 -18.1808 -18.1784 -18.1737 -18.1721 -18.1682 -18.1673 -18.1641
   -18.1627 -18.1604 -18.1599 -18.1437 -18.1388 -18.1197 -18.1171 -18.1055
   -18.1033 -18.0962 -18.0831 -18.0308 -18.0199 -18.0040 -17.9945 -17.9905
    -9.4826  -9.4363  -9.3744  -9.3000  -9.2631  -9.2077  -9.1052  -9.0690
    -9.0573  -9.0227  -9.0090  -8.9793  -8.9672  -8.9042  -8.8909  -8.8177
    -8.7996  -8.7270  -8.7131  -8.6799  -8.5884  -8.5695  -8.5424  -8.2925
    -5.2454  -5.2207  -5.2053  -5.2016  -5.1938  -5.1871  -5.1810  -5.1767
    -5.1732  -5.1699  -5.1591  -5.1564  -5.1469  -5.1432  -5.1390  -5.1372
    -5.1315  -5.1283  -5.1262  -5.1217  -5.1177  -4.9683  -4.9570  -4.9430
    -4.1827  -4.0117  -3.9291  -3.7614  -3.6219  -3.4258  -3.3813  -3.1644
    -0.6450  -0.6193  -0.5853  -0.5057  -0.4032  -0.3181  -0.2142  -0.1271
    -0.0813  -0.0164   0.0613   0.1202   0.2841   0.3662   0.4419   0.4597
     0.4840   0.5259   0.5623   0.5989   0.6172   0.6474   0.6602   0.6930
     0.7873   0.8472   0.8641   0.9182   0.9393   0.9862   1.0477   1.0766
     1.1462   1.2076   1.2256   1.2534   1.2944   1.3252   1.3402   1.3847
     1.4062   1.4246   1.4521   1.4797   1.5056   1.5238   1.5569   1.5790
     1.5978   1.6178   1.6592   1.6902   1.7231   1.7311   1.7582   1.8080
     1.8296   1.8668   1.8821   1.9033   1.9222   1.9655   1.9888   1.9985
     2.0996   2.1107   2.1432   2.2291   2.3304   2.4468   2.5483   2.6354

          k =-0.3750-0.3750 0.3750 (132612 PWs)   bands (ev):

   -18.4420 -18.4249 -18.4104 -18.3992 -18.3779 -18.3634 -18.3565 -18.3126
   -18.3103 -18.3018 -18.2920 -18.2907 -18.2863 -18.2789 -18.2773 -18.2744
   -18.2674 -18.2077 -18.2077 -18.1991 -18.1963 -18.1898 -18.1888 -18.1869
   -18.1852 -18.1808 -18.1784 -18.1737 -18.1721 -18.1682 -18.1673 -18.1641
   -18.1627 -18.1604 -18.1599 -18.1437 -18.1388 -18.1197 -18.1171 -18.1055
   -18.1033 -18.0962 -18.0831 -18.0308 -18.0199 -18.0040 -17.9945 -17.9905
    -9.4781  -9.4273  -9.3733  -9.3012  -9.2741  -9.2133  -9.1204  -9.0854
    -9.0627  -9.0185  -8.9964  -8.9791  -8.9558  -8.9080  -8.8750  -8.8187
    -8.7819  -8.7283  -8.7161  -8.6903  -8.5889  -8.5678  -8.5458  -8.2927
    -5.2454  -5.2209  -5.2055  -5.2022  -5.1936  -5.1881  -5.1811  -5.1759
    -5.1735  -5.1694  -5.1590  -5.1563  -5.1473  -5.1425  -5.1398  -5.1365
    -5.1314  -5.1290  -5.1256  -5.1215  -5.1174  -4.9679  -4.9570  -4.9429
    -4.0740  -3.8996  -3.8533  -3.8209  -3.6194  -3.5774  -3.5098  -3.3322
    -0.4863  -0.4111  -0.3621  -0.3325  -0.2340  -0.2062  -0.1932  -0.1089
    -0.0135   0.0129   0.0878   0.1942   0.2818   0.3291   0.3883   0.3945
     0.4272   0.4669   0.4820   0.5036   0.5381   0.5804   0.6029   0.6683
     0.8103   0.8512   0.8779   0.9109   0.9334   0.9814   1.0191   1.0448
     1.0882   1.1142   1.1679   1.1806   1.2389   1.2555   1.2945   1.3371
     1.3774   1.3989   1.4418   1.4957   1.5385   1.5475   1.5752   1.5982
     1.6347   1.6476   1.6650   1.6929   1.7381   1.7736   1.7880   1.8129
     1.8241   1.8550   1.8767   1.8972   1.9373   1.9535   1.9726   1.9985
     2.0227   2.0760   2.1026   2.1335   2.2020   2.2917   2.3217   2.4045

          k =-0.3750 0.3750-0.3750 (132612 PWs)   bands (ev):

   -18.4420 -18.4249 -18.4104 -18.3992 -18.3779 -18.3634 -18.3565 -18.3126
   -18.3103 -18.3018 -18.2920 -18.2907 -18.2863 -18.2789 -18.2773 -18.2744
   -18.2674 -18.2077 -18.2077 -18.1991 -18.1963 -18.1898 -18.1888 -18.1869
   -18.1852 -18.1808 -18.1784 -18.1737 -18.1721 -18.1682 -18.1673 -18.1641
   -18.1627 -18.1604 -18.1599 -18.1437 -18.1388 -18.1197 -18.1171 -18.1055
   -18.1033 -18.0962 -18.0831 -18.0308 -18.0199 -18.0040 -17.9945 -17.9905
    -9.4775  -9.4264  -9.3765  -9.3042  -9.2703  -9.2097  -9.1201  -9.0855
    -9.0679  -9.0213  -8.9912  -8.9731  -8.9575  -8.9159  -8.8749  -8.8137
    -8.7841  -8.7258  -8.7165  -8.6914  -8.5893  -8.5680  -8.5455  -8.2927
    -5.2453  -5.2209  -5.2056  -5.2022  -5.1937  -5.1879  -5.1801  -5.1760
    -5.1738  -5.1705  -5.1592  -5.1560  -5.1473  -5.1428  -5.1401  -5.1358
    -5.1311  -5.1282  -5.1255  -5.1215  -5.1183  -4.9679  -4.9570  -4.9430
    -4.0712  -3.9149  -3.8605  -3.8007  -3.6067  -3.5585  -3.5442  -3.3301
    -0.4988  -0.3921  -0.3513  -0.3069  -0.2591  -0.2448  -0.1623  -0.1062
    -0.0298   0.0342   0.0846   0.1872   0.2384   0.3359   0.3694   0.4016
     0.4215   0.4722   0.4969   0.5251   0.5528   0.5727   0.6074   0.6659
     0.7955   0.8616   0.8856   0.8966   0.9560   0.9935   1.0091   1.0382
     1.0922   1.1177   1.1405   1.1952   1.2250   1.2640   1.2958   1.3248
     1.3591   1.4128   1.4545   1.5053   1.5282   1.5503   1.5739   1.6090
     1.6287   1.6542   1.6758   1.7007   1.7310   1.7563   1.7789   1.8033
     1.8337   1.8527   1.8766   1.9026   1.9260   1.9468   1.9630   1.9945
     2.0542   2.0834   2.1237   2.1364   2.1825   2.2856   2.3489   2.3727

          k = 0.3750-0.3750-0.3750 (132612 PWs)   bands (ev):

   -18.4420 -18.4249 -18.4104 -18.3992 -18.3779 -18.3634 -18.3565 -18.3126
   -18.3103 -18.3018 -18.2920 -18.2907 -18.2863 -18.2789 -18.2773 -18.2744
   -18.2674 -18.2077 -18.2077 -18.1991 -18.1963 -18.1898 -18.1888 -18.1869
   -18.1852 -18.1808 -18.1784 -18.1737 -18.1721 -18.1682 -18.1673 -18.1641
   -18.1627 -18.1604 -18.1599 -18.1437 -18.1388 -18.1197 -18.1171 -18.1055
   -18.1033 -18.0962 -18.0831 -18.0308 -18.0199 -18.0040 -17.9945 -17.9905
    -9.4755  -9.4321  -9.3743  -9.2920  -9.2786  -9.2125  -9.1252  -9.0815
    -9.0690  -9.0142  -8.9966  -8.9746  -8.9569  -8.9108  -8.8763  -8.8162
    -8.7837  -8.7283  -8.7136  -8.6918  -8.5893  -8.5678  -8.5457  -8.2926
    -5.2454  -5.2209  -5.2055  -5.2022  -5.1941  -5.1876  -5.1811  -5.1757
    -5.1739  -5.1692  -5.1591  -5.1564  -5.1471  -5.1424  -5.1397  -5.1365
    -5.1313  -5.1288  -5.1257  -5.1216  -5.1175  -4.9680  -4.9570  -4.9429
    -4.0658  -3.9438  -3.8562  -3.7334  -3.6853  -3.5623  -3.5077  -3.3325
    -0.4729  -0.3874  -0.3547  -0.3193  -0.2896  -0.2153  -0.1645  -0.1432
    -0.0190   0.0119   0.0681   0.1998   0.2841   0.3296   0.3837   0.4105
     0.4422   0.4705   0.4826   0.5255   0.5413   0.5699   0.5983   0.6565
     0.8208   0.8691   0.8931   0.9129   0.9456   0.9660   0.9968   1.0446
     1.0649   1.1199   1.1582   1.1906   1.2274   1.2716   1.2806   1.3199
     1.3613   1.4324   1.4656   1.5163   1.5242   1.5605   1.5679   1.5783
     1.6248   1.6531   1.6664   1.7034   1.7120   1.7577   1.7678   1.8053
     1.8414   1.8753   1.8956   1.9084   1.9217   1.9563   1.9607   1.9869
     2.0591   2.0841   2.1091   2.1365   2.1955   2.2951   2.3253   2.3696

     highest occupied level (ev):     3.1755

!    total energy              =   -2256.26980780 Ry
     estimated scf accuracy    <          6.1E-11 Ry

     The total energy is the sum of the following terms:
     one-electron contribution =    -994.47758228 Ry
     hartree contribution      =     625.43497707 Ry
     xc contribution           =    -647.63422704 Ry
     ewald contribution        =   -1239.59297555 Ry

     convergence has been achieved in  15 iterations

     Forces acting on atoms (cartesian axes, Ry/au):

     atom    1 type  1   force =     0.00096441   -0.00110683    0.00313059
     atom    2 type  2   force =     0.00404676   -0.02261987    0.00602887
     atom    3 type  3   force =    -0.00633536   -0.00092453   -0.00491675
     atom    4 type  3   force =    -0.00861869    0.00352692   -0.00165184
     atom    5 type  3   force =    -0.00467239    0.00553586    0.00656244
     atom    6 type  1   force =     0.00091538   -0.02158320   -0.02660143
     atom    7 type  2   force =     0.00453679    0.01734152   -0.03534529
     atom    8 type  3   force =    -0.01738668   -0.00251941   -0.00337695
     atom    9 type  3   force =     0.00310183   -0.00122487    0.04703961
     atom   10 type  3   force =     0.00206599   -0.00908531   -0.00299362
     atom   11 type  1   force =    -0.00183936    0.00048494    0.00087153
     atom   12 type  2   force =     0.00223238    0.01169621    0.03071856
     atom   13 type  3   force =    -0.00156647    0.02507956    0.01448323
     atom   14 type  3   force =     0.00521976   -0.00089272    0.00006972
     atom   15 type  3   force =     0.00108823   -0.00214908   -0.00593786
     atom   16 type  1   force =     0.00212892   -0.00134006   -0.00178271
     atom   17 type  2   force =     0.02680331   -0.02825329    0.00076358
     atom   18 type  3   force =     0.00778848   -0.00283765   -0.00466685
     atom   19 type  3   force =     0.00023755    0.00385279   -0.02554382
     atom   20 type  3   force =     0.00274752    0.01531364   -0.00434492
     atom   21 type  1   force =     0.01026626    0.00887284    0.00337379
     atom   22 type  2   force =    -0.00010075    0.02655053    0.00803965
     atom   23 type  3   force =     0.00055673    0.00518649    0.00288497
     atom   24 type  3   force =    -0.00478071   -0.01187055    0.01010997
     atom   25 type  3   force =     0.02007261    0.00071120    0.00182342
     atom   26 type  1   force =     0.00087759   -0.00061504   -0.00486521
     atom   27 type  2   force =    -0.00778883   -0.00008942   -0.00731286
     atom   28 type  3   force =     0.01231819    0.00043317   -0.00757672
     atom   29 type  3   force =     0.00215317   -0.00365945   -0.00626476
     atom   30 type  3   force =     0.00421720    0.01160077   -0.00220474
     atom   31 type  1   force =     0.00230521   -0.00208067    0.00087969
     atom   32 type  2   force =    -0.01516012    0.00499771   -0.00771331
     atom   33 type  3   force =    -0.00104226   -0.00499252    0.00038976
     atom   34 type  3   force =    -0.00026106   -0.00209019   -0.00177540
     atom   35 type  3   force =    -0.00389531   -0.02153983    0.00059197
     atom   36 type  1   force =     0.00090912    0.00011538   -0.00055996
     atom   37 type  2   force =    -0.01402016    0.00121715    0.00425621
     atom   38 type  3   force =    -0.03605654    0.00665730    0.00190380
     atom   39 type  3   force =     0.00383108   -0.00004580    0.01534949
     atom   40 type  3   force =     0.00214022   -0.00765370   -0.00383585

     Total force =     0.125397     Total SCF correction =     0.000036


     Computing stress (Cartesian axis) and pressure

          total   stress  (Ry/bohr**3)                   (kbar)     P=       -4.55
  -0.00003470   0.00000357   0.00000454           -5.10        0.53        0.67
   0.00000357  -0.00004156   0.00000569            0.53       -6.11        0.84
   0.00000454   0.00000569  -0.00001655            0.67        0.84       -2.43

 
     init_run     :     19.76s CPU     17.20s WALL (       1 calls)
     electrons    :    201.27s CPU    212.06s WALL (       1 calls)
     forces       :      8.88s CPU      3.92s WALL (       1 calls)
     stress       :     32.30s CPU     31.50s WALL (       1 calls)

     Called by init_run:
     wfcinit      :     11.87s CPU     14.14s WALL (       1 calls)
                                       14.14s GPU  (       1 calls)
     potinit      :      4.55s CPU      1.39s WALL (       1 calls)
     hinit0       :      2.79s CPU      0.99s WALL (       1 calls)

     Called by electrons:
     c_bands      :    119.81s CPU    169.56s WALL (      16 calls)
     sum_band     :     22.04s CPU     21.14s WALL (      16 calls)
                                       21.14s GPU  (      16 calls)
     v_of_rho     :     54.90s CPU     16.68s WALL (      16 calls)
     mix_rho      :      6.50s CPU      4.94s WALL (      16 calls)

     Called by c_bands:
     init_us_2    :      2.26s CPU      3.06s WALL (     280 calls)
                                        3.05s GPU  (     280 calls)
     cegterg      :     78.98s CPU    126.13s WALL (     128 calls)

     Called by *egterg:
     cdiaghg      :     13.42s CPU     25.58s WALL (     623 calls)
                                       25.55s GPU  (     623 calls)
     h_psi        :     53.68s CPU     72.72s WALL (     639 calls)
                                       72.29s GPU  (     639 calls)
     g_psi        :      0.00s CPU      0.36s WALL (     503 calls)
                                        0.35s GPU  (     503 calls)

     Called by h_psi:
     h_psi:calbec :      0.33s CPU      9.80s WALL (     639 calls)
                                        9.79s GPU  (     639 calls)
     vloc_psi     :     38.92s CPU     53.07s WALL (     639 calls)
                                       52.17s GPU  (     639 calls)
     add_vuspsi   :      0.33s CPU      9.77s WALL (     639 calls)
                                        9.77s GPU  (     639 calls)

     General routines
     calbec       :      0.33s CPU      0.41s WALL (     679 calls)
     fft          :     25.50s CPU      6.52s WALL (     185 calls)
                                        0.01s GPU  (       6 calls)
     ffts         :      2.61s CPU      0.67s WALL (      16 calls)
     fftw         :      0.67s CPU     61.63s WALL (   10306 calls)
                                       46.05s GPU  (   10306 calls)
 
     Parallel routines
 
     PWSCF        :   4m22.84s CPU   4m25.48s WALL

 
   This run was terminated on:  23:43:48  22Apr2021            

=------------------------------------------------------------------------------=
   JOB DONE.
=------------------------------------------------------------------------------=
