
     Program PWSCF v.6.7MaX starts on 22Apr2021 at 21:16:23 

     This program is part of the open-source Quantum ESPRESSO suite
     for quantum simulation of materials; please cite
         "P. Giannozzi et al., J. Phys.:Condens. Matter 21 395502 (2009);
         "P. Giannozzi et al., J. Phys.:Condens. Matter 29 465901 (2017);
         "P. Giannozzi et al., J. Chem. Phys. 152 154105 (2020);
          URL http://www.quantum-espresso.org", 
     in publications or presentations arising from this work. More details at
     http://www.quantum-espresso.org/quote

     Parallel version (MPI & OpenMP), running on      16 processor cores
     Number of MPI processes:                 4
     Threads/MPI process:                     4

     MPI processes distributed on     1 nodes
     K-points division:     npool     =       4
     Reading input from ESP_69.pwi
Warning: card &CELL ignored
Warning: card / ignored

     Current dimensions of program PWSCF are:
     Max number of different atomic species (ntypx) = 10
     Max number of k-points (npk) =  40000
     Max angular momentum in pseudopotentials (lmaxx) =  3
     Message from routine read_pp_mesh:
     mesh size missing, using the one in header
     Message from routine read_pp_mesh:
     mesh size missing, using the one in header
     Message from routine read_pp_mesh:
     mesh size missing, using the one in header

     Subspace diagonalization in iterative solution of the eigenvalue problem:
     a serial algorithm will be used

 
     G-vector sticks info
     --------------------
     sticks:   dense  smooth     PW     G-vecs:    dense   smooth      PW
     Sum       12589   12589   3289              1061107  1061107  140905
 
     Using Slab Decomposition
 


     bravais-lattice index     =            0
     lattice parameter (alat)  =      23.7585  a.u.
     unit-cell volume          =   13410.8736 (a.u.)^3
     number of atoms/cell      =           40
     number of atomic types    =            3
     number of electrons       =       352.00
     number of Kohn-Sham states=          176
     kinetic-energy cutoff     =      70.0000  Ry
     charge density cutoff     =     280.0000  Ry
     scf convergence threshold =      1.0E-10
     mixing beta               =       0.7000
     number of iterations used =            8  plain     mixing
     Exchange-correlation= PBESOL
                           (   1   4  10   8   0   0   0)

     GPU acceleration is ACTIVE.


     celldm(1)=  23.758500  celldm(2)=   0.000000  celldm(3)=   0.000000
     celldm(4)=   0.000000  celldm(5)=   0.000000  celldm(6)=   0.000000

     crystal axes: (cart. coord. in units of alat)
               a(1) = (   1.000000   0.000000   0.000000 )  
               a(2) = (   0.000000   1.000000   0.000000 )  
               a(3) = (   0.000000   0.000000   1.000000 )  

     reciprocal axes: (cart. coord. in units 2 pi/alat)
               b(1) = (  1.000000  0.000000  0.000000 )  
               b(2) = (  0.000000  1.000000  0.000000 )  
               b(3) = (  0.000000  0.000000  1.000000 )  


     PseudoPot. # 1 for Cs read from file:
     /m100/home/userexternal/lmonacel/espresso/pseudo/Cs-nc-pbesol.upf
     MD5 check sum: 9d2f2206a14dc5b3b3f3fbfae186bed4
     Pseudo is Norm-conserving + core correction, Zval =  9.0
     Generated using ONCVPSP code by D. R. Hamann
     Using radial grid of 2384 points,  8 beta functions with: 
                l(1) =   0
                l(2) =   0
                l(3) =   1
                l(4) =   1
                l(5) =   2
                l(6) =   2
                l(7) =   3
                l(8) =   3

     PseudoPot. # 2 for Sn read from file:
     /m100/home/userexternal/lmonacel/espresso/pseudo/Sn-nc-pbesol.upf
     MD5 check sum: c2995d571af40102bfea7461443d92cf
     Pseudo is Norm-conserving + core correction, Zval = 14.0
     Generated using ONCVPSP code by D. R. Hamann
     Using radial grid of 1628 points,  6 beta functions with: 
                l(1) =   0
                l(2) =   0
                l(3) =   1
                l(4) =   1
                l(5) =   2
                l(6) =   2

     PseudoPot. # 3 for I  read from file:
     /m100/home/userexternal/lmonacel/espresso/pseudo/I-nc-pbesol.upf
     MD5 check sum: 80ed5ceb2eb9c553cfb6760a299d9c5b
     Pseudo is Norm-conserving + core correction, Zval =  7.0
     Generated using ONCVPSP code by D. R. Hamann
     Using radial grid of 1182 points,  6 beta functions with: 
                l(1) =   0
                l(2) =   0
                l(3) =   1
                l(4) =   1
                l(5) =   2
                l(6) =   2

     atomic species   valence    mass     pseudopotential
        Cs             9.00   132.90545     Cs( 1.00)
        Sn            14.00   118.71000     Sn( 1.00)
        I              7.00   126.90447     I ( 1.00)

     No symmetry found



   Cartesian axes

     site n.     atom                  positions (alat units)
         1           Cs  tau(   1) = (   0.2081737   0.2709406   0.2301792  )
         2           Sn  tau(   2) = (   0.0059603  -0.0312760  -0.0023765  )
         3           I   tau(   3) = (   0.2526098  -0.0284385   0.0362977  )
         4           I   tau(   4) = (  -0.0222250   0.0009718   0.2415857  )
         5           I   tau(   5) = (  -0.0097027   0.2452932  -0.0248858  )
         6           Cs  tau(   6) = (   0.2964845   0.2641911   0.7639543  )
         7           Sn  tau(   7) = (  -0.0019178  -0.0093955   0.5062242  )
         8           I   tau(   8) = (   0.2536589   0.0054920   0.5024005  )
         9           I   tau(   9) = (   0.0302890   0.0004418   0.7552286  )
        10           I   tau(  10) = (  -0.0243809   0.2521166   0.5193919  )
        11           Cs  tau(  11) = (   0.2058162   0.7315213   0.2376645  )
        12           Sn  tau(  12) = (   0.0206577   0.4836151  -0.0091378  )
        13           I   tau(  13) = (   0.2402715   0.5143845  -0.0118953  )
        14           I   tau(  14) = (   0.0347394   0.5075962   0.2566143  )
        15           I   tau(  15) = (   0.0000367   0.7403911  -0.0262836  )
        16           Cs  tau(  16) = (   0.2690080   0.7831829   0.7631252  )
        17           Sn  tau(  17) = (  -0.0096491   0.4905363   0.4985711  )
        18           I   tau(  18) = (   0.2407387   0.4968507   0.5426574  )
        19           I   tau(  19) = (   0.0165329   0.5288428   0.7543405  )
        20           I   tau(  20) = (  -0.0176946   0.7604830   0.4519124  )
        21           Cs  tau(  21) = (   0.7389706   0.2242877   0.2161137  )
        22           Sn  tau(  22) = (   0.5175120   0.0041606  -0.0042886  )
        23           I   tau(  23) = (   0.7552047  -0.0223963  -0.0259081  )
        24           I   tau(  24) = (   0.5101196   0.0277598   0.2594797  )
        25           I   tau(  25) = (   0.4754169   0.2578281   0.0080670  )
        26           Cs  tau(  26) = (   0.7609318   0.2346246   0.7276078  )
        27           Sn  tau(  27) = (   0.5187852   0.0058103   0.5010705  )
        28           I   tau(  28) = (   0.7617602   0.0277071   0.5294036  )
        29           I   tau(  29) = (   0.4834061   0.0105695   0.7612547  )
        30           I   tau(  30) = (   0.5114618   0.2518145   0.5019125  )
        31           Cs  tau(  31) = (   0.7587507   0.7424889   0.2533933  )
        32           Sn  tau(  32) = (   0.5124767   0.5143922   0.0191132  )
        33           I   tau(  33) = (   0.7470716   0.4919577   0.0288073  )
        34           I   tau(  34) = (   0.4874536   0.5249853   0.2602235  )
        35           I   tau(  35) = (   0.5023631   0.7568666  -0.0066849  )
        36           Cs  tau(  36) = (   0.7321400   0.7154335   0.7444368  )
        37           Sn  tau(  37) = (   0.4691027   0.5057532   0.5124548  )
        38           I   tau(  38) = (   0.7549370   0.4725206   0.4704112  )
        39           I   tau(  39) = (   0.5271358   0.4875593   0.7588674  )
        40           I   tau(  40) = (   0.4891244   0.7573613   0.5030970  )

     number of k points=    32
                       cart. coord. in units 2pi/alat
        k(    1) = (   0.1250000   0.1250000   0.1250000), wk =   0.0625000
        k(    2) = (   0.1250000   0.1250000   0.3750000), wk =   0.0625000
        k(    3) = (   0.1250000   0.3750000   0.3750000), wk =   0.0625000
        k(    4) = (   0.3750000   0.3750000   0.3750000), wk =   0.0625000
        k(    5) = (  -0.1250000  -0.1250000   0.1250000), wk =   0.0625000
        k(    6) = (  -0.1250000   0.1250000  -0.1250000), wk =   0.0625000
        k(    7) = (   0.1250000  -0.1250000  -0.1250000), wk =   0.0625000
        k(    8) = (  -0.1250000  -0.1250000   0.3750000), wk =   0.0625000
        k(    9) = (  -0.1250000   0.1250000  -0.3750000), wk =   0.0625000
        k(   10) = (   0.1250000  -0.1250000  -0.3750000), wk =   0.0625000
        k(   11) = (   0.3750000  -0.1250000   0.1250000), wk =   0.0625000
        k(   12) = (  -0.3750000  -0.1250000  -0.1250000), wk =   0.0625000
        k(   13) = (   0.3750000   0.1250000  -0.1250000), wk =   0.0625000
        k(   14) = (  -0.3750000   0.1250000   0.1250000), wk =   0.0625000
        k(   15) = (  -0.1250000   0.3750000   0.1250000), wk =   0.0625000
        k(   16) = (  -0.1250000  -0.3750000  -0.1250000), wk =   0.0625000
        k(   17) = (   0.1250000   0.3750000  -0.1250000), wk =   0.0625000
        k(   18) = (   0.1250000  -0.3750000   0.1250000), wk =   0.0625000
        k(   19) = (  -0.1250000  -0.3750000   0.3750000), wk =   0.0625000
        k(   20) = (  -0.1250000   0.3750000  -0.3750000), wk =   0.0625000
        k(   21) = (   0.1250000  -0.3750000  -0.3750000), wk =   0.0625000
        k(   22) = (   0.3750000   0.1250000  -0.3750000), wk =   0.0625000
        k(   23) = (  -0.3750000  -0.1250000  -0.3750000), wk =   0.0625000
        k(   24) = (   0.3750000  -0.1250000   0.3750000), wk =   0.0625000
        k(   25) = (  -0.3750000   0.1250000   0.3750000), wk =   0.0625000
        k(   26) = (   0.3750000  -0.3750000   0.1250000), wk =   0.0625000
        k(   27) = (  -0.3750000  -0.3750000  -0.1250000), wk =   0.0625000
        k(   28) = (   0.3750000   0.3750000  -0.1250000), wk =   0.0625000
        k(   29) = (  -0.3750000   0.3750000   0.1250000), wk =   0.0625000
        k(   30) = (  -0.3750000  -0.3750000   0.3750000), wk =   0.0625000
        k(   31) = (  -0.3750000   0.3750000  -0.3750000), wk =   0.0625000
        k(   32) = (   0.3750000  -0.3750000  -0.3750000), wk =   0.0625000

     Dense  grid:  1061107 G-vectors     FFT dimensions: ( 128, 128, 128)

     Estimated max dynamical RAM per process >       6.82 GB

     Estimated total dynamical RAM >      27.27 GB

     Initial potential from superposition of free atoms

     starting charge  351.69472, renormalised to  352.00000
     Starting wfcs are  208 randomized atomic wfcs

     total cpu time spent up to now is       18.0 secs

     Self-consistent Calculation

     iteration #  1     ecut=    70.00 Ry     beta= 0.70
     Davidson diagonalization with overlap
     ethr =  1.00E-02,  avg # of iterations =  2.0

     Threshold (ethr) on eigenvalues was too large:
     Diagonalizing with lowered threshold

     Davidson diagonalization with overlap
     ethr =  2.13E-04,  avg # of iterations =  4.0

     total cpu time spent up to now is       38.8 secs

     total energy              =   -2256.02542320 Ry
     estimated scf accuracy    <       0.64588019 Ry

     iteration #  2     ecut=    70.00 Ry     beta= 0.70
     Davidson diagonalization with overlap
     ethr =  1.83E-04,  avg # of iterations =  3.3

     total cpu time spent up to now is       51.7 secs

     total energy              =   -2256.22520231 Ry
     estimated scf accuracy    <       0.29542984 Ry

     iteration #  3     ecut=    70.00 Ry     beta= 0.70
     Davidson diagonalization with overlap
     ethr =  8.39E-05,  avg # of iterations =  2.8

     total cpu time spent up to now is       63.5 secs

     total energy              =   -2256.28184487 Ry
     estimated scf accuracy    <       0.01768501 Ry

     iteration #  4     ecut=    70.00 Ry     beta= 0.70
     Davidson diagonalization with overlap
     ethr =  5.02E-06,  avg # of iterations =  4.4

     total cpu time spent up to now is       77.3 secs

     total energy              =   -2256.28859015 Ry
     estimated scf accuracy    <       0.00604730 Ry

     iteration #  5     ecut=    70.00 Ry     beta= 0.70
     Davidson diagonalization with overlap
     ethr =  1.72E-06,  avg # of iterations =  3.8

     total cpu time spent up to now is       89.9 secs

     total energy              =   -2256.28974857 Ry
     estimated scf accuracy    <       0.00118946 Ry

     iteration #  6     ecut=    70.00 Ry     beta= 0.70
     Davidson diagonalization with overlap
     ethr =  3.38E-07,  avg # of iterations =  3.1

     total cpu time spent up to now is      102.2 secs

     total energy              =   -2256.28994628 Ry
     estimated scf accuracy    <       0.00017388 Ry

     iteration #  7     ecut=    70.00 Ry     beta= 0.70
     Davidson diagonalization with overlap
     ethr =  4.94E-08,  avg # of iterations =  4.1

     total cpu time spent up to now is      115.7 secs

     total energy              =   -2256.29000573 Ry
     estimated scf accuracy    <       0.00001912 Ry

     iteration #  8     ecut=    70.00 Ry     beta= 0.70
     Davidson diagonalization with overlap
     ethr =  5.43E-09,  avg # of iterations =  3.7

     total cpu time spent up to now is      129.9 secs

     total energy              =   -2256.29001401 Ry
     estimated scf accuracy    <       0.00000394 Ry

     iteration #  9     ecut=    70.00 Ry     beta= 0.70
     Davidson diagonalization with overlap
     ethr =  1.12E-09,  avg # of iterations =  4.3

     total cpu time spent up to now is      144.1 secs

     total energy              =   -2256.29001549 Ry
     estimated scf accuracy    <       0.00000083 Ry

     iteration # 10     ecut=    70.00 Ry     beta= 0.70
     Davidson diagonalization with overlap
     ethr =  2.35E-10,  avg # of iterations =  3.2

     total cpu time spent up to now is      157.6 secs

     total energy              =   -2256.29001576 Ry
     estimated scf accuracy    <       0.00000020 Ry

     iteration # 11     ecut=    70.00 Ry     beta= 0.70
     Davidson diagonalization with overlap
     ethr =  5.69E-11,  avg # of iterations =  4.5

     total cpu time spent up to now is      171.9 secs

     total energy              =   -2256.29001584 Ry
     estimated scf accuracy    <       0.00000002 Ry

     iteration # 12     ecut=    70.00 Ry     beta= 0.70
     Davidson diagonalization with overlap
     ethr =  5.62E-12,  avg # of iterations =  7.0

     total cpu time spent up to now is      190.5 secs

     total energy              =   -2256.29001586 Ry
     estimated scf accuracy    <          7.9E-09 Ry

     iteration # 13     ecut=    70.00 Ry     beta= 0.70
     Davidson diagonalization with overlap
     ethr =  2.23E-12,  avg # of iterations =  3.1

     total cpu time spent up to now is      202.9 secs

     total energy              =   -2256.29001586 Ry
     estimated scf accuracy    <          9.4E-10 Ry

     iteration # 14     ecut=    70.00 Ry     beta= 0.70
     Davidson diagonalization with overlap
     ethr =  2.66E-13,  avg # of iterations =  5.5

     total cpu time spent up to now is      218.4 secs

     total energy              =   -2256.29001586 Ry
     estimated scf accuracy    <          2.2E-10 Ry

     iteration # 15     ecut=    70.00 Ry     beta= 0.70
     Davidson diagonalization with overlap
     ethr =  1.00E-13,  avg # of iterations =  3.9

     total cpu time spent up to now is      230.9 secs

     End of self-consistent calculation

          k = 0.1250 0.1250 0.1250 (132670 PWs)   bands (ev):

   -18.5508 -18.4937 -18.4555 -18.3309 -18.2953 -18.2794 -18.2759 -18.2742
   -18.2666 -18.2651 -18.2627 -18.2622 -18.2550 -18.2519 -18.2473 -18.2462
   -18.2418 -18.2381 -18.2329 -18.2315 -18.2284 -18.2240 -18.2227 -18.1929
   -18.1884 -18.1853 -18.1845 -18.1844 -18.1838 -18.1828 -18.1742 -18.1735
   -18.1722 -18.1721 -18.1697 -18.1681 -18.1673 -18.1577 -18.1573 -18.1570
   -18.1485 -18.1480 -18.1438 -18.1208 -18.1118 -18.1011 -18.0946 -18.0929
    -9.5333  -9.3703  -9.3283  -9.2757  -9.2303  -9.1329  -9.1052  -9.0318
    -8.9938  -8.9722  -8.9449  -8.9153  -8.8867  -8.8707  -8.8353  -8.8275
    -8.7916  -8.7715  -8.7597  -8.6911  -8.6346  -8.5961  -8.5614  -8.3426
    -5.3191  -5.3098  -5.3029  -5.2703  -5.2593  -5.2538  -5.2293  -5.2258
    -5.2075  -5.1161  -5.1004  -5.0947  -5.0827  -5.0735  -5.0642  -5.0622
    -5.0564  -5.0502  -5.0443  -5.0308  -5.0258  -5.0159  -5.0129  -5.0017
    -4.4339  -3.9475  -3.9212  -3.8613  -3.4309  -3.3436  -3.3179  -2.7655
    -0.7799  -0.6828  -0.6549  -0.6248  -0.5829  -0.5271  -0.4799  -0.4514
    -0.4146  -0.3836  -0.2662  -0.1276   0.4099   0.4321   0.4696   0.5717
     0.6198   0.6427   0.7134   0.7554   0.7832   0.8379   0.8902   0.9606
     0.9721   1.0217   1.0403   1.0520   1.1032   1.1273   1.1664   1.1980
     1.2051   1.2222   1.2539   1.2824   1.2965   1.3023   1.3473   1.3552
     1.3802   1.4273   1.4382   1.4508   1.4776   1.4829   1.5237   1.5491
     1.5760   1.5977   1.6059   1.6263   1.6649   1.6779   1.7048   1.7405
     1.7581   1.8242   1.8596   1.9739   1.9879   2.0236   2.0693   2.1317
     2.2054   2.2245   2.2634   2.3507   2.6379   2.7173   2.8466   3.1748

          k = 0.1250 0.1250 0.3750 (132608 PWs)   bands (ev):

   -18.5508 -18.4937 -18.4555 -18.3309 -18.2953 -18.2794 -18.2759 -18.2742
   -18.2666 -18.2651 -18.2627 -18.2622 -18.2550 -18.2519 -18.2473 -18.2462
   -18.2418 -18.2381 -18.2329 -18.2315 -18.2284 -18.2240 -18.2227 -18.1929
   -18.1884 -18.1853 -18.1844 -18.1844 -18.1839 -18.1828 -18.1742 -18.1735
   -18.1722 -18.1721 -18.1697 -18.1681 -18.1674 -18.1577 -18.1573 -18.1570
   -18.1485 -18.1480 -18.1438 -18.1208 -18.1118 -18.1011 -18.0946 -18.0929
    -9.5231  -9.3802  -9.3233  -9.2874  -9.2242  -9.1400  -9.1098  -9.0286
    -8.9972  -8.9704  -8.9572  -8.9162  -8.8817  -8.8641  -8.8412  -8.8205
    -8.7924  -8.7553  -8.7344  -8.7051  -8.6496  -8.5887  -8.5691  -8.3436
    -5.3191  -5.3097  -5.3027  -5.2702  -5.2592  -5.2538  -5.2293  -5.2259
    -5.2075  -5.1161  -5.1003  -5.0945  -5.0830  -5.0736  -5.0644  -5.0623
    -5.0564  -5.0496  -5.0445  -5.0313  -5.0258  -5.0159  -5.0131  -5.0018
    -4.3098  -4.0947  -3.8135  -3.7501  -3.5943  -3.4940  -3.2147  -2.9679
    -0.7527  -0.6709  -0.6310  -0.5918  -0.5384  -0.5077  -0.4801  -0.3341
    -0.0929  -0.0292   0.0180   0.1287   0.3677   0.4245   0.4452   0.5001
     0.5446   0.5906   0.6202   0.6587   0.6892   0.7194   0.7772   0.8269
     0.8593   0.8901   0.9273   0.9702   1.0687   1.0987   1.1180   1.1572
     1.2032   1.2225   1.2583   1.2815   1.2923   1.3147   1.3499   1.3635
     1.4003   1.4195   1.4401   1.4713   1.5067   1.5237   1.5395   1.5572
     1.5737   1.6005   1.6334   1.6583   1.6814   1.7037   1.7205   1.7726
     1.7929   1.8296   1.8474   1.8920   1.9071   1.9815   2.0023   2.0326
     2.1423   2.2483   2.2575   2.3371   2.4376   2.4961   2.7683   2.8946

          k = 0.1250 0.3750 0.3750 (132616 PWs)   bands (ev):

   -18.5508 -18.4937 -18.4555 -18.3309 -18.2953 -18.2794 -18.2759 -18.2742
   -18.2666 -18.2651 -18.2627 -18.2622 -18.2550 -18.2519 -18.2473 -18.2462
   -18.2418 -18.2381 -18.2329 -18.2315 -18.2284 -18.2240 -18.2227 -18.1929
   -18.1884 -18.1852 -18.1844 -18.1844 -18.1839 -18.1828 -18.1742 -18.1735
   -18.1722 -18.1721 -18.1697 -18.1681 -18.1674 -18.1577 -18.1573 -18.1570
   -18.1485 -18.1480 -18.1438 -18.1208 -18.1118 -18.1011 -18.0946 -18.0929
    -9.5173  -9.3623  -9.3388  -9.2943  -9.2226  -9.1466  -9.1259  -9.0358
    -8.9940  -8.9704  -8.9501  -8.9203  -8.8856  -8.8624  -8.8302  -8.7949
    -8.7812  -8.7513  -8.7332  -8.7252  -8.6560  -8.5858  -8.5747  -8.3444
    -5.3190  -5.3097  -5.3028  -5.2702  -5.2587  -5.2536  -5.2296  -5.2260
    -5.2078  -5.1161  -5.0999  -5.0944  -5.0827  -5.0735  -5.0639  -5.0617
    -5.0574  -5.0498  -5.0447  -5.0317  -5.0258  -5.0163  -5.0129  -5.0019
    -4.1923  -3.9921  -3.9334  -3.7382  -3.6521  -3.4059  -3.3922  -3.1533
    -0.6982  -0.6359  -0.5653  -0.5072  -0.3945  -0.2478  -0.2162  -0.1099
    -0.0651  -0.0047   0.1281   0.2043   0.2807   0.4043   0.4270   0.4415
     0.4963   0.5308   0.5646   0.5787   0.6253   0.6725   0.7330   0.7515
     0.7877   0.8398   0.8940   0.9539   0.9816   1.0183   1.0752   1.1119
     1.1383   1.1628   1.2359   1.2469   1.2637   1.2984   1.3472   1.3621
     1.3837   1.4003   1.4395   1.4710   1.5143   1.5415   1.5535   1.5688
     1.5806   1.6220   1.6709   1.6863   1.7105   1.7319   1.7680   1.7897
     1.8240   1.8399   1.8600   1.8876   1.9066   1.9311   1.9718   1.9969
     2.0452   2.1164   2.1861   2.2366   2.3198   2.4334   2.5363   2.6472

          k = 0.3750 0.3750 0.3750 (132612 PWs)   bands (ev):

   -18.5508 -18.4937 -18.4555 -18.3309 -18.2953 -18.2794 -18.2759 -18.2742
   -18.2666 -18.2651 -18.2627 -18.2622 -18.2550 -18.2519 -18.2473 -18.2462
   -18.2418 -18.2381 -18.2329 -18.2315 -18.2284 -18.2240 -18.2227 -18.1929
   -18.1884 -18.1853 -18.1845 -18.1844 -18.1839 -18.1828 -18.1742 -18.1735
   -18.1722 -18.1721 -18.1697 -18.1681 -18.1674 -18.1577 -18.1573 -18.1570
   -18.1485 -18.1480 -18.1438 -18.1208 -18.1118 -18.1011 -18.0946 -18.0929
    -9.5116  -9.3530  -9.3419  -9.3001  -9.2203  -9.1669  -9.1326  -9.0451
    -8.9926  -8.9662  -8.9457  -8.9057  -8.8829  -8.8563  -8.8317  -8.7931
    -8.7851  -8.7491  -8.7331  -8.7236  -8.6558  -8.5880  -8.5774  -8.3453
    -5.3190  -5.3097  -5.3027  -5.2702  -5.2588  -5.2540  -5.2295  -5.2257
    -5.2077  -5.1160  -5.1001  -5.0945  -5.0823  -5.0737  -5.0641  -5.0617
    -5.0571  -5.0496  -5.0452  -5.0313  -5.0255  -5.0163  -5.0128  -5.0017
    -4.0762  -3.9202  -3.8542  -3.7678  -3.6825  -3.5610  -3.4733  -3.3271
    -0.4974  -0.3993  -0.3558  -0.3170  -0.2643  -0.2468  -0.1369  -0.0883
    -0.0685   0.0091   0.1774   0.2185   0.2744   0.3160   0.3728   0.4193
     0.4575   0.4922   0.5255   0.5398   0.5702   0.6421   0.7035   0.7246
     0.8232   0.8411   0.8687   0.9197   0.9415   0.9987   1.0361   1.0481
     1.0650   1.1159   1.1484   1.1729   1.2103   1.2549   1.2905   1.3238
     1.3475   1.4082   1.4410   1.4988   1.5417   1.5601   1.5815   1.6156
     1.6253   1.6624   1.6864   1.7056   1.7378   1.7622   1.7762   1.7930
     1.8108   1.8350   1.8405   1.8653   1.9065   1.9322   1.9638   2.0071
     2.0292   2.0653   2.1163   2.1392   2.1754   2.2492   2.3600   2.3737

          k =-0.1250-0.1250 0.1250 (132670 PWs)   bands (ev):

   -18.5508 -18.4937 -18.4555 -18.3309 -18.2953 -18.2794 -18.2759 -18.2742
   -18.2666 -18.2651 -18.2627 -18.2622 -18.2550 -18.2519 -18.2473 -18.2462
   -18.2418 -18.2381 -18.2329 -18.2315 -18.2284 -18.2240 -18.2227 -18.1929
   -18.1884 -18.1853 -18.1845 -18.1844 -18.1838 -18.1828 -18.1742 -18.1735
   -18.1722 -18.1721 -18.1697 -18.1681 -18.1673 -18.1577 -18.1573 -18.1570
   -18.1485 -18.1480 -18.1438 -18.1208 -18.1118 -18.1011 -18.0946 -18.0929
    -9.5331  -9.3710  -9.3299  -9.2719  -9.2299  -9.1413  -9.0999  -9.0321
    -8.9935  -8.9683  -8.9398  -8.9179  -8.8855  -8.8808  -8.8452  -8.8136
    -8.7886  -8.7746  -8.7613  -8.6903  -8.6326  -8.5983  -8.5609  -8.3427
    -5.3191  -5.3099  -5.3029  -5.2703  -5.2593  -5.2538  -5.2293  -5.2259
    -5.2074  -5.1161  -5.1004  -5.0945  -5.0827  -5.0735  -5.0644  -5.0622
    -5.0567  -5.0500  -5.0442  -5.0311  -5.0255  -5.0161  -5.0128  -5.0016
    -4.4334  -3.9550  -3.9274  -3.8457  -3.4345  -3.3558  -3.3023  -2.7690
    -0.7470  -0.7077  -0.6623  -0.6139  -0.5833  -0.5138  -0.4790  -0.4524
    -0.4308  -0.3726  -0.2868  -0.1369   0.4079   0.4312   0.4718   0.5621
     0.6184   0.6510   0.7162   0.7711   0.7877   0.8283   0.9004   0.9650
     0.9831   1.0178   1.0342   1.0716   1.0810   1.1371   1.1534   1.1814
     1.2051   1.2322   1.2474   1.2805   1.3079   1.3261   1.3378   1.3550
     1.3847   1.3953   1.4152   1.4392   1.4818   1.4978   1.5374   1.5613
     1.5709   1.6002   1.6227   1.6289   1.6527   1.6841   1.6992   1.7401
     1.7517   1.8298   1.8587   1.9690   1.9967   2.0229   2.0747   2.1239
     2.1943   2.2345   2.2730   2.3486   2.6350   2.7498   2.8139   3.1408

          k =-0.1250 0.1250-0.1250 (132670 PWs)   bands (ev):

   -18.5508 -18.4937 -18.4555 -18.3309 -18.2953 -18.2794 -18.2759 -18.2742
   -18.2666 -18.2651 -18.2627 -18.2622 -18.2550 -18.2519 -18.2473 -18.2462
   -18.2418 -18.2381 -18.2329 -18.2315 -18.2284 -18.2240 -18.2227 -18.1929
   -18.1884 -18.1853 -18.1845 -18.1844 -18.1838 -18.1828 -18.1742 -18.1735
   -18.1722 -18.1721 -18.1697 -18.1681 -18.1673 -18.1577 -18.1573 -18.1570
   -18.1485 -18.1480 -18.1438 -18.1208 -18.1118 -18.1011 -18.0946 -18.0929
    -9.5331  -9.3722  -9.3258  -9.2795  -9.2263  -9.1296  -9.1083  -9.0350
    -8.9930  -8.9706  -8.9468  -8.9108  -8.8876  -8.8726  -8.8499  -8.8091
    -8.7919  -8.7708  -8.7649  -8.6906  -8.6330  -8.5983  -8.5607  -8.3426
    -5.3191  -5.3098  -5.3029  -5.2702  -5.2593  -5.2540  -5.2295  -5.2258
    -5.2072  -5.1160  -5.1004  -5.0947  -5.0828  -5.0733  -5.0642  -5.0622
    -5.0566  -5.0500  -5.0444  -5.0305  -5.0258  -5.0160  -5.0130  -5.0018
    -4.4342  -3.9630  -3.9093  -3.8556  -3.4248  -3.3623  -3.3051  -2.7694
    -0.7460  -0.6976  -0.6532  -0.6156  -0.5789  -0.5377  -0.4783  -0.4531
    -0.4225  -0.3929  -0.2750  -0.1368   0.4153   0.4352   0.4662   0.5543
     0.6331   0.6455   0.7136   0.7651   0.7965   0.8305   0.9164   0.9511
     0.9712   0.9981   1.0281   1.0423   1.1088   1.1392   1.1526   1.1911
     1.2091   1.2378   1.2521   1.2904   1.2965   1.3250   1.3494   1.3634
     1.3869   1.4024   1.4286   1.4349   1.4819   1.4901   1.5232   1.5407
     1.5652   1.5911   1.6255   1.6453   1.6648   1.6783   1.6987   1.7413
     1.7664   1.8217   1.8488   1.9724   1.9913   2.0378   2.0751   2.1205
     2.1929   2.2296   2.2735   2.3464   2.6566   2.7456   2.7884   3.1518

          k = 0.1250-0.1250-0.1250 (132670 PWs)   bands (ev):

   -18.5508 -18.4937 -18.4555 -18.3309 -18.2953 -18.2794 -18.2759 -18.2742
   -18.2666 -18.2651 -18.2627 -18.2622 -18.2550 -18.2519 -18.2473 -18.2462
   -18.2418 -18.2381 -18.2329 -18.2315 -18.2284 -18.2240 -18.2227 -18.1929
   -18.1884 -18.1853 -18.1845 -18.1845 -18.1838 -18.1828 -18.1742 -18.1735
   -18.1722 -18.1721 -18.1697 -18.1681 -18.1673 -18.1577 -18.1573 -18.1570
   -18.1485 -18.1480 -18.1438 -18.1208 -18.1118 -18.1011 -18.0946 -18.0929
    -9.5330  -9.3719  -9.3293  -9.2749  -9.2258  -9.1364  -9.1018  -9.0370
    -8.9958  -8.9733  -8.9405  -8.9172  -8.8836  -8.8642  -8.8434  -8.8273
    -8.7898  -8.7707  -8.7611  -8.6917  -8.6320  -8.6001  -8.5596  -8.3427
    -5.3191  -5.3098  -5.3029  -5.2702  -5.2592  -5.2541  -5.2294  -5.2259
    -5.2072  -5.1161  -5.1004  -5.0945  -5.0828  -5.0734  -5.0643  -5.0623
    -5.0566  -5.0501  -5.0441  -5.0307  -5.0257  -5.0160  -5.0130  -5.0017
    -4.4338  -3.9558  -3.9190  -3.8557  -3.4187  -3.3488  -3.3239  -2.7675
    -0.7756  -0.6820  -0.6460  -0.6084  -0.5864  -0.5354  -0.5003  -0.4561
    -0.3982  -0.3747  -0.2828  -0.1341   0.4171   0.4334   0.4660   0.5624
     0.6189   0.6410   0.7203   0.7704   0.7868   0.8348   0.8869   0.9385
     0.9691   1.0127   1.0482   1.0692   1.0901   1.1265   1.1562   1.1830
     1.2101   1.2340   1.2542   1.2891   1.3040   1.3283   1.3398   1.3613
     1.3832   1.4031   1.4339   1.4485   1.4647   1.4978   1.5212   1.5516
     1.5803   1.5959   1.6286   1.6400   1.6544   1.6739   1.7026   1.7399
     1.7691   1.8374   1.8424   1.9748   1.9970   2.0201   2.0671   2.1181
     2.1845   2.2297   2.2783   2.3336   2.6617   2.7642   2.7978   3.1511

          k =-0.1250-0.1250 0.3750 (132608 PWs)   bands (ev):

   -18.5508 -18.4937 -18.4555 -18.3309 -18.2953 -18.2794 -18.2759 -18.2742
   -18.2666 -18.2651 -18.2627 -18.2622 -18.2550 -18.2519 -18.2473 -18.2462
   -18.2418 -18.2381 -18.2329 -18.2315 -18.2284 -18.2240 -18.2227 -18.1929
   -18.1884 -18.1853 -18.1844 -18.1844 -18.1839 -18.1828 -18.1742 -18.1735
   -18.1722 -18.1721 -18.1697 -18.1681 -18.1674 -18.1577 -18.1573 -18.1570
   -18.1485 -18.1480 -18.1438 -18.1208 -18.1118 -18.1011 -18.0946 -18.0929
    -9.5229  -9.3807  -9.3261  -9.2825  -9.2229  -9.1507  -9.1025  -9.0289
    -8.9973  -8.9650  -8.9568  -8.9163  -8.8875  -8.8603  -8.8530  -8.8059
    -8.7993  -8.7529  -8.7376  -8.7038  -8.6477  -8.5910  -8.5679  -8.3436
    -5.3190  -5.3097  -5.3028  -5.2702  -5.2592  -5.2538  -5.2293  -5.2259
    -5.2074  -5.1161  -5.1003  -5.0942  -5.0830  -5.0735  -5.0646  -5.0623
    -5.0567  -5.0494  -5.0444  -5.0316  -5.0255  -5.0160  -5.0130  -5.0017
    -4.3080  -4.1000  -3.8229  -3.7255  -3.5998  -3.5056  -3.2027  -2.9757
    -0.7339  -0.6793  -0.6408  -0.5976  -0.5238  -0.5035  -0.4756  -0.3268
    -0.1075  -0.0415   0.0168   0.0924   0.3705   0.4220   0.4512   0.5074
     0.5489   0.5859   0.6489   0.6673   0.7018   0.7130   0.7827   0.8269
     0.8699   0.8813   0.9234   0.9636   1.0528   1.1006   1.1316   1.1583
     1.1861   1.2335   1.2450   1.2791   1.3012   1.3268   1.3535   1.3690
     1.3812   1.4055   1.4271   1.4735   1.4991   1.5235   1.5449   1.5718
     1.5964   1.6130   1.6439   1.6516   1.6694   1.6964   1.7274   1.7507
     1.7865   1.8251   1.8469   1.8973   1.9271   1.9827   1.9978   2.0358
     2.1427   2.2241   2.2773   2.3510   2.4178   2.5164   2.7663   2.8642

          k =-0.1250 0.1250-0.3750 (132608 PWs)   bands (ev):

   -18.5508 -18.4937 -18.4555 -18.3309 -18.2953 -18.2794 -18.2759 -18.2742
   -18.2666 -18.2651 -18.2627 -18.2622 -18.2550 -18.2519 -18.2473 -18.2462
   -18.2418 -18.2381 -18.2329 -18.2315 -18.2284 -18.2240 -18.2227 -18.1929
   -18.1884 -18.1853 -18.1844 -18.1844 -18.1839 -18.1828 -18.1742 -18.1735
   -18.1722 -18.1721 -18.1697 -18.1681 -18.1674 -18.1577 -18.1573 -18.1570
   -18.1485 -18.1480 -18.1438 -18.1208 -18.1118 -18.1011 -18.0946 -18.0929
    -9.5229  -9.3808  -9.3232  -9.2893  -9.2203  -9.1396  -9.1094  -9.0335
    -8.9983  -8.9674  -8.9556  -8.9130  -8.8902  -8.8586  -8.8494  -8.8065
    -8.7987  -8.7557  -8.7361  -8.7039  -8.6485  -8.5901  -8.5684  -8.3436
    -5.3191  -5.3097  -5.3028  -5.2701  -5.2592  -5.2540  -5.2294  -5.2259
    -5.2072  -5.1161  -5.1003  -5.0944  -5.0831  -5.0734  -5.0644  -5.0624
    -5.0567  -5.0493  -5.0446  -5.0312  -5.0256  -5.0160  -5.0132  -5.0019
    -4.3096  -4.0995  -3.8094  -3.7431  -3.5909  -3.5069  -3.2061  -2.9751
    -0.7377  -0.6696  -0.6351  -0.5894  -0.5294  -0.5153  -0.4722  -0.3345
    -0.1126  -0.0453   0.0089   0.1137   0.3769   0.4287   0.4527   0.5055
     0.5284   0.5877   0.6466   0.6737   0.6959   0.7256   0.7796   0.8302
     0.8507   0.8748   0.9413   0.9811   1.0375   1.0770   1.1147   1.1433
     1.2052   1.2434   1.2612   1.2931   1.3090   1.3227   1.3368   1.3752
     1.3835   1.4175   1.4483   1.4717   1.4898   1.5192   1.5405   1.5564
     1.5733   1.6212   1.6450   1.6609   1.6770   1.7120   1.7228   1.7587
     1.7938   1.8101   1.8448   1.8758   1.9281   1.9920   2.0059   2.0340
     2.1376   2.2310   2.2913   2.3261   2.4420   2.4867   2.7614   2.8797

          k = 0.1250-0.1250-0.3750 (132608 PWs)   bands (ev):

   -18.5508 -18.4937 -18.4555 -18.3309 -18.2953 -18.2794 -18.2759 -18.2742
   -18.2666 -18.2651 -18.2627 -18.2622 -18.2550 -18.2519 -18.2473 -18.2462
   -18.2418 -18.2381 -18.2329 -18.2315 -18.2284 -18.2240 -18.2227 -18.1929
   -18.1884 -18.1853 -18.1844 -18.1844 -18.1839 -18.1828 -18.1742 -18.1735
   -18.1722 -18.1721 -18.1697 -18.1681 -18.1674 -18.1577 -18.1573 -18.1570
   -18.1485 -18.1480 -18.1438 -18.1208 -18.1118 -18.1011 -18.0946 -18.0929
    -9.5228  -9.3804  -9.3284  -9.2830  -9.2194  -9.1470  -9.1029  -9.0348
    -9.0017  -8.9713  -8.9490  -8.9185  -8.8806  -8.8580  -8.8443  -8.8219
    -8.7941  -8.7535  -8.7358  -8.7053  -8.6477  -8.5925  -8.5665  -8.3436
    -5.3191  -5.3097  -5.3028  -5.2702  -5.2591  -5.2540  -5.2294  -5.2259
    -5.2073  -5.1162  -5.1003  -5.0942  -5.0831  -5.0735  -5.0645  -5.0624
    -5.0567  -5.0493  -5.0443  -5.0315  -5.0256  -5.0159  -5.0132  -5.0018
    -4.3090  -4.0983  -3.8244  -3.7312  -3.5874  -3.5063  -3.2126  -2.9709
    -0.7508  -0.6683  -0.6223  -0.5975  -0.5474  -0.5039  -0.4687  -0.3363
    -0.0973  -0.0246   0.0171   0.1090   0.3643   0.4085   0.4511   0.5109
     0.5352   0.5975   0.6288   0.6637   0.6832   0.7212   0.7785   0.8323
     0.8533   0.8912   0.9260   0.9994   1.0396   1.0862   1.1278   1.1345
     1.2019   1.2409   1.2612   1.2770   1.3067   1.3209   1.3487   1.3679
     1.3909   1.4067   1.4460   1.4724   1.4961   1.5232   1.5469   1.5762
     1.5906   1.6031   1.6360   1.6598   1.6733   1.6938   1.7280   1.7542
     1.7927   1.8118   1.8694   1.9036   1.9214   1.9769   2.0002   2.0189
     2.1389   2.2107   2.2694   2.3399   2.4565   2.5067   2.7639   2.8787

          k = 0.3750-0.1250 0.1250 (132608 PWs)   bands (ev):

   -18.5508 -18.4937 -18.4555 -18.3309 -18.2953 -18.2794 -18.2759 -18.2742
   -18.2666 -18.2651 -18.2627 -18.2622 -18.2550 -18.2519 -18.2473 -18.2462
   -18.2418 -18.2381 -18.2329 -18.2315 -18.2284 -18.2240 -18.2227 -18.1929
   -18.1884 -18.1853 -18.1845 -18.1844 -18.1838 -18.1828 -18.1742 -18.1735
   -18.1722 -18.1721 -18.1697 -18.1681 -18.1673 -18.1577 -18.1573 -18.1570
   -18.1485 -18.1480 -18.1438 -18.1208 -18.1118 -18.1011 -18.0946 -18.0929
    -9.5249  -9.3711  -9.3319  -9.2875  -9.2159  -9.1561  -9.1015  -9.0416
    -8.9910  -8.9651  -8.9476  -8.9054  -8.8918  -8.8662  -8.8365  -8.8097
    -8.7932  -8.7733  -8.7615  -8.6906  -8.6369  -8.5890  -8.5705  -8.3444
    -5.3191  -5.3098  -5.3028  -5.2700  -5.2591  -5.2539  -5.2296  -5.2258
    -5.2075  -5.1158  -5.1004  -5.0942  -5.0825  -5.0732  -5.0644  -5.0625
    -5.0565  -5.0502  -5.0450  -5.0305  -5.0256  -5.0162  -5.0132  -5.0019
    -4.3071  -4.1002  -3.8162  -3.7380  -3.5903  -3.5138  -3.2049  -2.9746
    -0.7144  -0.6199  -0.6098  -0.5817  -0.5526  -0.4668  -0.4027  -0.3542
    -0.1785  -0.1335  -0.0189   0.0614   0.3875   0.4322   0.4524   0.4902
     0.5339   0.5672   0.6121   0.6298   0.6729   0.7017   0.7528   0.8295
     0.8581   0.9614   0.9818   1.0163   1.0501   1.1057   1.1504   1.1636
     1.1986   1.2254   1.2358   1.2746   1.3170   1.3295   1.3515   1.3740
     1.3831   1.4053   1.4218   1.4573   1.4891   1.5063   1.5372   1.5644
     1.5820   1.6082   1.6431   1.6624   1.6877   1.7070   1.7252   1.7417
     1.7687   1.8346   1.8760   1.8988   1.9399   2.0045   2.0566   2.0789
     2.1066   2.1622   2.2404   2.3332   2.4561   2.5551   2.7739   2.9055

          k =-0.3750-0.1250-0.1250 (132608 PWs)   bands (ev):

   -18.5508 -18.4937 -18.4555 -18.3309 -18.2953 -18.2794 -18.2759 -18.2742
   -18.2666 -18.2651 -18.2627 -18.2622 -18.2550 -18.2519 -18.2473 -18.2462
   -18.2418 -18.2381 -18.2329 -18.2315 -18.2284 -18.2240 -18.2227 -18.1929
   -18.1884 -18.1853 -18.1845 -18.1844 -18.1838 -18.1828 -18.1742 -18.1735
   -18.1722 -18.1721 -18.1697 -18.1681 -18.1673 -18.1577 -18.1573 -18.1570
   -18.1485 -18.1480 -18.1438 -18.1208 -18.1118 -18.1011 -18.0946 -18.0929
    -9.5251  -9.3690  -9.3354  -9.2828  -9.2204  -9.1573  -9.1015  -9.0376
    -8.9930  -8.9649  -8.9429  -8.9140  -8.8896  -8.8622  -8.8280  -8.8209
    -8.7967  -8.7715  -8.7587  -8.6909  -8.6381  -8.5857  -8.5727  -8.3444
    -5.3191  -5.3098  -5.3027  -5.2701  -5.2592  -5.2537  -5.2294  -5.2258
    -5.2078  -5.1159  -5.1003  -5.0942  -5.0825  -5.0733  -5.0644  -5.0625
    -5.0563  -5.0503  -5.0448  -5.0311  -5.0254  -5.0161  -5.0131  -5.0018
    -4.3065  -4.1006  -3.8042  -3.7508  -3.5875  -3.5226  -3.2002  -2.9714
    -0.7534  -0.6219  -0.5999  -0.5768  -0.5239  -0.4655  -0.4230  -0.3543
    -0.1666  -0.1119  -0.0236   0.0675   0.3636   0.4135   0.4674   0.4894
     0.5564   0.5740   0.6121   0.6272   0.6766   0.6998   0.7578   0.8247
     0.8324   0.9511   0.9814   1.0402   1.0647   1.1025   1.1140   1.1703
     1.2108   1.2269   1.2488   1.2626   1.2849   1.3145   1.3572   1.3679
     1.3898   1.4279   1.4387   1.4722   1.4796   1.5154   1.5399   1.5536
     1.5906   1.6009   1.6362   1.6620   1.6830   1.7032   1.7179   1.7530
     1.7769   1.8228   1.8831   1.8956   1.9581   1.9916   2.0215   2.0601
     2.1193   2.1846   2.2504   2.3461   2.4311   2.5268   2.8165   2.9278

          k = 0.3750 0.1250-0.1250 (132608 PWs)   bands (ev):

   -18.5508 -18.4937 -18.4555 -18.3309 -18.2953 -18.2794 -18.2759 -18.2742
   -18.2666 -18.2651 -18.2627 -18.2622 -18.2550 -18.2519 -18.2473 -18.2462
   -18.2418 -18.2381 -18.2329 -18.2315 -18.2284 -18.2240 -18.2227 -18.1929
   -18.1884 -18.1853 -18.1845 -18.1844 -18.1838 -18.1828 -18.1742 -18.1735
   -18.1722 -18.1721 -18.1697 -18.1681 -18.1673 -18.1577 -18.1573 -18.1570
   -18.1485 -18.1480 -18.1438 -18.1208 -18.1118 -18.1011 -18.0946 -18.0929
    -9.5250  -9.3691  -9.3373  -9.2803  -9.2185  -9.1624  -9.0990  -9.0385
    -8.9908  -8.9637  -8.9423  -8.9098  -8.8910  -8.8729  -8.8296  -8.8181
    -8.7897  -8.7737  -8.7604  -8.6903  -8.6366  -8.5887  -8.5709  -8.3444
    -5.3191  -5.3098  -5.3028  -5.2701  -5.2592  -5.2536  -5.2294  -5.2258
    -5.2077  -5.1159  -5.1004  -5.0940  -5.0825  -5.0734  -5.0646  -5.0624
    -5.0565  -5.0502  -5.0448  -5.0311  -5.0253  -5.0163  -5.0130  -5.0018
    -4.3049  -4.1034  -3.8184  -3.7300  -3.6003  -3.5114  -3.2014  -2.9750
    -0.7195  -0.6195  -0.6152  -0.5854  -0.5477  -0.4650  -0.3997  -0.3557
    -0.1716  -0.1080  -0.0350   0.0523   0.3572   0.4225   0.4693   0.4920
     0.5520   0.5785   0.6044   0.6387   0.6841   0.6977   0.7587   0.8061
     0.8454   0.9666   0.9922   1.0266   1.0498   1.1060   1.1485   1.1636
     1.1918   1.2220   1.2468   1.2735   1.3091   1.3189   1.3503   1.3700
     1.3873   1.4047   1.4199   1.4573   1.4914   1.5039   1.5426   1.5730
     1.5864   1.6047   1.6420   1.6593   1.6819   1.7093   1.7201   1.7387
     1.7773   1.8402   1.8724   1.9039   1.9649   1.9938   2.0129   2.0698
     2.1067   2.1840   2.2557   2.3362   2.4604   2.5296   2.8062   2.8876

          k =-0.3750 0.1250 0.1250 (132608 PWs)   bands (ev):

   -18.5508 -18.4937 -18.4555 -18.3309 -18.2953 -18.2794 -18.2759 -18.2742
   -18.2666 -18.2651 -18.2627 -18.2622 -18.2550 -18.2519 -18.2473 -18.2462
   -18.2418 -18.2381 -18.2329 -18.2315 -18.2284 -18.2240 -18.2227 -18.1929
   -18.1884 -18.1853 -18.1845 -18.1844 -18.1838 -18.1828 -18.1742 -18.1735
   -18.1722 -18.1721 -18.1697 -18.1681 -18.1673 -18.1577 -18.1573 -18.1570
   -18.1485 -18.1480 -18.1438 -18.1208 -18.1118 -18.1011 -18.0946 -18.0929
    -9.5248  -9.3713  -9.3352  -9.2823  -9.2145  -9.1618  -9.0986  -9.0426
    -8.9936  -8.9676  -8.9394  -8.9149  -8.8868  -8.8562  -8.8353  -8.8212
    -8.7950  -8.7696  -8.7608  -8.6915  -8.6357  -8.5920  -8.5683  -8.3444
    -5.3191  -5.3098  -5.3028  -5.2701  -5.2591  -5.2539  -5.2295  -5.2258
    -5.2075  -5.1159  -5.1003  -5.0940  -5.0826  -5.0732  -5.0645  -5.0626
    -5.0566  -5.0501  -5.0447  -5.0310  -5.0253  -5.0162  -5.0132  -5.0019
    -4.3058  -4.1033  -3.8114  -3.7396  -3.5866  -3.5218  -3.2026  -2.9736
    -0.7505  -0.6184  -0.6073  -0.5673  -0.5300  -0.4639  -0.4005  -0.3555
    -0.1795  -0.1195  -0.0301   0.0510   0.3720   0.4437   0.4616   0.4892
     0.5460   0.5721   0.5940   0.6346   0.6693   0.7053   0.7581   0.8100
     0.8444   0.9613   0.9908   1.0306   1.0627   1.0848   1.1294   1.1750
     1.1923   1.2216   1.2513   1.2794   1.3039   1.3214   1.3492   1.3721
     1.4062   1.4191   1.4325   1.4596   1.4829   1.5013   1.5306   1.5646
     1.5904   1.6212   1.6394   1.6628   1.6844   1.6948   1.7199   1.7463
     1.7685   1.8372   1.8733   1.9075   1.9449   2.0043   2.0402   2.0592
     2.0997   2.1657   2.2570   2.3118   2.4697   2.5490   2.8089   2.9032

          k =-0.1250 0.3750 0.1250 (132608 PWs)   bands (ev):

   -18.5508 -18.4937 -18.4555 -18.3309 -18.2953 -18.2794 -18.2759 -18.2742
   -18.2666 -18.2651 -18.2627 -18.2622 -18.2550 -18.2519 -18.2473 -18.2462
   -18.2418 -18.2381 -18.2329 -18.2315 -18.2284 -18.2240 -18.2227 -18.1929
   -18.1884 -18.1853 -18.1845 -18.1844 -18.1838 -18.1828 -18.1742 -18.1735
   -18.1722 -18.1721 -18.1697 -18.1682 -18.1673 -18.1577 -18.1573 -18.1570
   -18.1485 -18.1480 -18.1438 -18.1208 -18.1118 -18.1011 -18.0946 -18.0929
    -9.5261  -9.3687  -9.3299  -9.2803  -9.2252  -9.1473  -9.1196  -9.0434
    -8.9894  -8.9664  -8.9373  -8.9230  -8.8839  -8.8675  -8.8399  -8.8063
    -8.7798  -8.7586  -8.7485  -8.7158  -8.6425  -8.5944  -8.5661  -8.3434
    -5.3191  -5.3097  -5.3029  -5.2701  -5.2586  -5.2539  -5.2296  -5.2260
    -5.2075  -5.1162  -5.1001  -5.0944  -5.0824  -5.0733  -5.0637  -5.0619
    -5.0575  -5.0504  -5.0442  -5.0314  -5.0257  -5.0166  -5.0130  -5.0019
    -4.3091  -4.0860  -3.8075  -3.7648  -3.5632  -3.5224  -3.2312  -2.9692
    -0.7356  -0.6471  -0.5764  -0.5653  -0.5189  -0.4680  -0.4452  -0.3845
    -0.1706  -0.0706  -0.0184   0.0988   0.3950   0.4251   0.4425   0.4896
     0.5336   0.5522   0.6008   0.6497   0.6935   0.7031   0.7701   0.7974
     0.8749   0.9165   0.9805   1.0166   1.0843   1.0975   1.1258   1.1585
     1.1923   1.2160   1.2521   1.2712   1.3021   1.3181   1.3681   1.3895
     1.3939   1.4261   1.4326   1.4439   1.4826   1.4985   1.5352   1.5634
     1.5911   1.6224   1.6343   1.6566   1.6828   1.7033   1.7537   1.7697
     1.7885   1.8247   1.8540   1.8993   1.9248   1.9829   1.9963   2.0250
     2.1103   2.1769   2.2738   2.3259   2.4278   2.5121   2.7908   2.9308

          k =-0.1250-0.3750-0.1250 (132608 PWs)   bands (ev):

   -18.5508 -18.4937 -18.4555 -18.3309 -18.2953 -18.2794 -18.2759 -18.2742
   -18.2666 -18.2651 -18.2627 -18.2622 -18.2550 -18.2519 -18.2473 -18.2462
   -18.2418 -18.2381 -18.2329 -18.2315 -18.2284 -18.2240 -18.2227 -18.1929
   -18.1884 -18.1853 -18.1845 -18.1844 -18.1838 -18.1828 -18.1742 -18.1735
   -18.1722 -18.1721 -18.1697 -18.1682 -18.1673 -18.1577 -18.1573 -18.1570
   -18.1485 -18.1480 -18.1438 -18.1208 -18.1118 -18.1011 -18.0946 -18.0929
    -9.5263  -9.3661  -9.3324  -9.2770  -9.2299  -9.1482  -9.1205  -9.0378
    -8.9883  -8.9663  -8.9410  -8.9199  -8.8860  -8.8687  -8.8431  -8.7993
    -8.7859  -8.7567  -8.7471  -8.7159  -8.6446  -8.5901  -8.5689  -8.3433
    -5.3190  -5.3097  -5.3028  -5.2702  -5.2587  -5.2536  -5.2295  -5.2259
    -5.2077  -5.1161  -5.1001  -5.0946  -5.0824  -5.0735  -5.0637  -5.0617
    -5.0571  -5.0505  -5.0444  -5.0317  -5.0257  -5.0165  -5.0129  -5.0019
    -4.3090  -4.0858  -3.8035  -3.7641  -3.5754  -3.5205  -3.2264  -2.9677
    -0.7271  -0.6459  -0.6155  -0.5629  -0.4950  -0.4719  -0.4597  -0.3775
    -0.1628  -0.0748  -0.0040   0.1076   0.3840   0.4182   0.4319   0.4857
     0.5437   0.5656   0.6004   0.6465   0.7025   0.7368   0.7545   0.7859
     0.8899   0.9093   0.9871   1.0236   1.0639   1.0926   1.1266   1.1461
     1.1660   1.2133   1.2568   1.2721   1.3081   1.3279   1.3629   1.3793
     1.4010   1.4169   1.4545   1.4683   1.4815   1.5045   1.5250   1.5636
     1.5930   1.5978   1.6361   1.6604   1.6764   1.6943   1.7283   1.7694
     1.7840   1.8333   1.8594   1.9138   1.9293   1.9728   1.9845   2.0500
     2.1345   2.1738   2.2721   2.3182   2.4229   2.5044   2.7982   2.9381

          k = 0.1250 0.3750-0.1250 (132608 PWs)   bands (ev):

   -18.5508 -18.4937 -18.4555 -18.3309 -18.2953 -18.2794 -18.2759 -18.2742
   -18.2666 -18.2651 -18.2627 -18.2622 -18.2550 -18.2519 -18.2473 -18.2462
   -18.2418 -18.2381 -18.2329 -18.2315 -18.2284 -18.2240 -18.2227 -18.1929
   -18.1884 -18.1852 -18.1845 -18.1844 -18.1838 -18.1828 -18.1742 -18.1735
   -18.1722 -18.1721 -18.1697 -18.1682 -18.1673 -18.1577 -18.1573 -18.1570
   -18.1485 -18.1480 -18.1438 -18.1208 -18.1118 -18.1011 -18.0946 -18.0929
    -9.5262  -9.3673  -9.3314  -9.2766  -9.2297  -9.1521  -9.1171  -9.0393
    -8.9871  -8.9605  -8.9374  -8.9248  -8.8865  -8.8801  -8.8353  -8.8032
    -8.7802  -8.7582  -8.7496  -8.7143  -8.6431  -8.5918  -8.5682  -8.3434
    -5.3190  -5.3097  -5.3029  -5.2702  -5.2587  -5.2536  -5.2295  -5.2259
    -5.2077  -5.1161  -5.1001  -5.0944  -5.0823  -5.0734  -5.0638  -5.0618
    -5.0575  -5.0503  -5.0442  -5.0317  -5.0255  -5.0167  -5.0128  -5.0018
    -4.3078  -4.0893  -3.8083  -3.7526  -3.5811  -3.5210  -3.2196  -2.9737
    -0.7243  -0.6534  -0.5823  -0.5530  -0.5307  -0.4804  -0.4207  -0.3878
    -0.1837  -0.0738  -0.0220   0.0955   0.3926   0.4128   0.4458   0.4872
     0.5487   0.5616   0.5980   0.6299   0.7069   0.7475   0.7750   0.7977
     0.8750   0.9307   0.9748   1.0162   1.0654   1.0789   1.1149   1.1579
     1.1937   1.2175   1.2545   1.2766   1.2940   1.3140   1.3595   1.3706
     1.3951   1.4150   1.4363   1.4768   1.4912   1.5115   1.5384   1.5632
     1.5848   1.6133   1.6297   1.6589   1.6809   1.7031   1.7397   1.7532
     1.7935   1.8319   1.8496   1.9089   1.9340   1.9743   1.9879   2.0516
     2.1460   2.1749   2.2460   2.3214   2.4316   2.4982   2.7973   2.9218

          k = 0.1250-0.3750 0.1250 (132608 PWs)   bands (ev):

   -18.5508 -18.4937 -18.4555 -18.3309 -18.2953 -18.2794 -18.2759 -18.2742
   -18.2666 -18.2651 -18.2627 -18.2622 -18.2550 -18.2519 -18.2473 -18.2462
   -18.2418 -18.2381 -18.2329 -18.2315 -18.2284 -18.2240 -18.2227 -18.1929
   -18.1884 -18.1852 -18.1845 -18.1844 -18.1838 -18.1828 -18.1742 -18.1735
   -18.1722 -18.1721 -18.1697 -18.1682 -18.1673 -18.1577 -18.1573 -18.1570
   -18.1485 -18.1480 -18.1438 -18.1208 -18.1118 -18.1011 -18.0946 -18.0929
    -9.5261  -9.3691  -9.3281  -9.2820  -9.2248  -9.1467  -9.1224  -9.0406
    -8.9872  -8.9648  -8.9423  -8.9167  -8.8862  -8.8783  -8.8364  -8.8004
    -8.7799  -8.7596  -8.7507  -8.7144  -8.6431  -8.5927  -8.5674  -8.3433
    -5.3191  -5.3097  -5.3029  -5.2701  -5.2586  -5.2538  -5.2297  -5.2259
    -5.2075  -5.1161  -5.1001  -5.0945  -5.0824  -5.0733  -5.0637  -5.0618
    -5.0574  -5.0503  -5.0445  -5.0314  -5.0256  -5.0166  -5.0130  -5.0020
    -4.3091  -4.0894  -3.7912  -3.7700  -3.5685  -3.5303  -3.2216  -2.9738
    -0.7165  -0.6482  -0.5982  -0.5623  -0.5114  -0.4720  -0.4296  -0.3853
    -0.1946  -0.0865  -0.0145   0.0938   0.4014   0.4251   0.4509   0.4911
     0.5427   0.5541   0.6084   0.6296   0.6925   0.7366   0.7590   0.8123
     0.8744   0.9123   0.9845   1.0085   1.0755   1.1078   1.1142   1.1563
     1.1930   1.2206   1.2451   1.2624   1.3091   1.3467   1.3553   1.3745
     1.3924   1.4087   1.4310   1.4674   1.4894   1.5031   1.5205   1.5627
     1.5886   1.6079   1.6401   1.6519   1.6702   1.7079   1.7520   1.7723
     1.7857   1.8260   1.8471   1.9029   1.9293   1.9951   2.0071   2.0329
     2.1303   2.1665   2.2516   2.3467   2.4305   2.5008   2.7794   2.9249

          k =-0.1250-0.3750 0.3750 (132616 PWs)   bands (ev):

   -18.5508 -18.4937 -18.4555 -18.3309 -18.2953 -18.2794 -18.2759 -18.2742
   -18.2666 -18.2651 -18.2627 -18.2622 -18.2550 -18.2519 -18.2473 -18.2462
   -18.2418 -18.2381 -18.2329 -18.2315 -18.2284 -18.2240 -18.2227 -18.1929
   -18.1884 -18.1852 -18.1844 -18.1844 -18.1839 -18.1828 -18.1742 -18.1735
   -18.1722 -18.1721 -18.1697 -18.1681 -18.1673 -18.1577 -18.1573 -18.1570
   -18.1485 -18.1480 -18.1438 -18.1208 -18.1118 -18.1011 -18.0946 -18.0929
    -9.5171  -9.3643  -9.3369  -9.2942  -9.2218  -9.1539  -9.1192  -9.0375
    -8.9936  -8.9631  -8.9507  -8.9238  -8.8894  -8.8631  -8.8299  -8.7932
    -8.7816  -8.7498  -8.7377  -8.7223  -8.6542  -8.5882  -8.5734  -8.3444
    -5.3190  -5.3097  -5.3028  -5.2702  -5.2587  -5.2536  -5.2295  -5.2260
    -5.2078  -5.1160  -5.0999  -5.0942  -5.0827  -5.0735  -5.0640  -5.0619
    -5.0578  -5.0497  -5.0445  -5.0317  -5.0257  -5.0164  -5.0128  -5.0018
    -4.1867  -4.0257  -3.8945  -3.7559  -3.6379  -3.4606  -3.3291  -3.1697
    -0.6916  -0.6474  -0.5605  -0.5101  -0.3252  -0.2681  -0.2130  -0.1428
    -0.0827   0.0133   0.0696   0.1638   0.3080   0.4085   0.4310   0.4661
     0.5003   0.5332   0.5707   0.5965   0.6463   0.6707   0.7083   0.7593
     0.8094   0.8470   0.8860   0.9206   0.9788   1.0290   1.0678   1.1203
     1.1356   1.1700   1.2282   1.2415   1.2708   1.3072   1.3379   1.3581
     1.3772   1.4126   1.4313   1.4594   1.5127   1.5323   1.5578   1.5807
     1.6121   1.6190   1.6721   1.6849   1.7104   1.7248   1.7705   1.7932
     1.8188   1.8331   1.8538   1.8802   1.9152   1.9450   1.9620   2.0014
     2.0709   2.0955   2.1848   2.2237   2.3185   2.4480   2.5291   2.6349

          k =-0.1250 0.3750-0.3750 (132616 PWs)   bands (ev):

   -18.5508 -18.4937 -18.4555 -18.3309 -18.2953 -18.2794 -18.2759 -18.2742
   -18.2666 -18.2651 -18.2627 -18.2622 -18.2550 -18.2519 -18.2473 -18.2462
   -18.2418 -18.2381 -18.2329 -18.2315 -18.2284 -18.2240 -18.2227 -18.1929
   -18.1884 -18.1852 -18.1844 -18.1844 -18.1839 -18.1828 -18.1742 -18.1735
   -18.1722 -18.1721 -18.1697 -18.1681 -18.1674 -18.1577 -18.1573 -18.1570
   -18.1485 -18.1480 -18.1438 -18.1208 -18.1118 -18.1011 -18.0946 -18.0929
    -9.5171  -9.3643  -9.3366  -9.2970  -9.2179  -9.1486  -9.1239  -9.0404
    -8.9946  -8.9663  -8.9502  -8.9201  -8.8894  -8.8627  -8.8277  -8.7920
    -8.7827  -8.7525  -8.7360  -8.7226  -8.6548  -8.5878  -8.5735  -8.3443
    -5.3190  -5.3097  -5.3028  -5.2701  -5.2586  -5.2538  -5.2297  -5.2259
    -5.2076  -5.1160  -5.1000  -5.0943  -5.0827  -5.0733  -5.0639  -5.0619
    -5.0577  -5.0495  -5.0447  -5.0317  -5.0256  -5.0163  -5.0130  -5.0020
    -4.1891  -4.0278  -3.8875  -3.7525  -3.6402  -3.4642  -3.3300  -3.1692
    -0.6919  -0.6420  -0.5647  -0.5018  -0.3188  -0.2689  -0.2209  -0.1578
    -0.0712  -0.0126   0.0680   0.1856   0.3061   0.4129   0.4430   0.4701
     0.4986   0.5240   0.5839   0.6035   0.6348   0.6657   0.7100   0.7459
     0.8052   0.8433   0.8728   0.9320   0.9837   1.0248   1.0685   1.1188
     1.1413   1.1752   1.2169   1.2587   1.2922   1.3055   1.3200   1.3660
     1.3730   1.4031   1.4441   1.4756   1.4934   1.5269   1.5542   1.5726
     1.5942   1.6327   1.6619   1.6932   1.7303   1.7377   1.7645   1.7765
     1.8092   1.8358   1.8602   1.8730   1.9079   1.9558   1.9702   2.0077
     2.0668   2.1019   2.1725   2.2223   2.3336   2.4395   2.5342   2.6274

          k = 0.1250-0.3750-0.3750 (132616 PWs)   bands (ev):

   -18.5508 -18.4937 -18.4555 -18.3309 -18.2953 -18.2794 -18.2759 -18.2742
   -18.2666 -18.2651 -18.2627 -18.2622 -18.2550 -18.2519 -18.2473 -18.2462
   -18.2418 -18.2381 -18.2329 -18.2315 -18.2284 -18.2240 -18.2227 -18.1929
   -18.1884 -18.1852 -18.1845 -18.1844 -18.1839 -18.1828 -18.1742 -18.1735
   -18.1722 -18.1721 -18.1697 -18.1681 -18.1673 -18.1577 -18.1573 -18.1570
   -18.1485 -18.1480 -18.1438 -18.1208 -18.1118 -18.1011 -18.0946 -18.0929
    -9.5170  -9.3630  -9.3402  -9.2945  -9.2182  -9.1502  -9.1199  -9.0434
    -8.9985  -8.9650  -8.9466  -8.9257  -8.8810  -8.8619  -8.8291  -8.7972
    -8.7810  -8.7512  -8.7352  -8.7243  -8.6542  -8.5904  -8.5712  -8.3444
    -5.3190  -5.3096  -5.3028  -5.2701  -5.2586  -5.2538  -5.2296  -5.2260
    -5.2076  -5.1161  -5.0999  -5.0942  -5.0828  -5.0734  -5.0639  -5.0620
    -5.0579  -5.0496  -5.0443  -5.0316  -5.0257  -5.0163  -5.0130  -5.0019
    -4.1913  -3.9985  -3.9323  -3.7372  -3.6423  -3.4118  -3.3909  -3.1559
    -0.6997  -0.6433  -0.5559  -0.5034  -0.3762  -0.2511  -0.2196  -0.1103
    -0.0542  -0.0112   0.1127   0.1841   0.2700   0.3896   0.4327   0.4648
     0.4987   0.5197   0.5630   0.6010   0.6228   0.6720   0.7122   0.7512
     0.8008   0.8433   0.8788   0.9583   0.9772   1.0355   1.0662   1.1279
     1.1356   1.1702   1.2316   1.2502   1.2775   1.3120   1.3275   1.3621
     1.3848   1.4006   1.4240   1.4759   1.4907   1.5379   1.5653   1.5883
     1.6039   1.6256   1.6510   1.6959   1.7159   1.7278   1.7675   1.7807
     1.8168   1.8430   1.8604   1.8850   1.9159   1.9389   1.9697   2.0000
     2.0253   2.1093   2.1737   2.2411   2.3281   2.4371   2.5317   2.6463

          k = 0.3750 0.1250-0.3750 (132616 PWs)   bands (ev):

   -18.5508 -18.4937 -18.4555 -18.3309 -18.2953 -18.2794 -18.2759 -18.2742
   -18.2666 -18.2651 -18.2627 -18.2622 -18.2550 -18.2519 -18.2473 -18.2462
   -18.2418 -18.2381 -18.2329 -18.2315 -18.2284 -18.2240 -18.2227 -18.1929
   -18.1884 -18.1853 -18.1845 -18.1844 -18.1839 -18.1828 -18.1742 -18.1735
   -18.1722 -18.1721 -18.1697 -18.1681 -18.1674 -18.1577 -18.1573 -18.1570
   -18.1485 -18.1480 -18.1438 -18.1208 -18.1118 -18.1011 -18.0946 -18.0929
    -9.5157  -9.3660  -9.3416  -9.3005  -9.2107  -9.1535  -9.1094  -9.0415
    -8.9982  -8.9622  -8.9581  -8.9068  -8.8859  -8.8535  -8.8379  -8.8130
    -8.8029  -8.7489  -8.7369  -8.7042  -8.6487  -8.5893  -8.5730  -8.3450
    -5.3190  -5.3097  -5.3027  -5.2701  -5.2592  -5.2537  -5.2295  -5.2259
    -5.2078  -5.1160  -5.1004  -5.0943  -5.0824  -5.0735  -5.0644  -5.0625
    -5.0563  -5.0498  -5.0448  -5.0311  -5.0256  -5.0161  -5.0133  -5.0018
    -4.1804  -4.0085  -3.9506  -3.7686  -3.6022  -3.4283  -3.3444  -3.1689
    -0.6892  -0.6214  -0.5689  -0.5075  -0.3710  -0.2593  -0.2146  -0.1641
    -0.1042   0.0163   0.1015   0.1372   0.3255   0.3991   0.4247   0.4625
     0.4968   0.5314   0.5859   0.6014   0.6282   0.6779   0.7195   0.7756
     0.8221   0.8275   0.8823   0.9350   0.9567   1.0311   1.0744   1.1024
     1.1378   1.1925   1.2260   1.2418   1.2692   1.3051   1.3232   1.3445
     1.3692   1.4029   1.4522   1.4659   1.4987   1.5364   1.5538   1.5876
     1.6110   1.6355   1.6536   1.6799   1.7004   1.7374   1.7586   1.7780
     1.8106   1.8275   1.8657   1.8981   1.9053   1.9373   1.9906   2.0242
     2.0741   2.1178   2.1850   2.2584   2.3409   2.4384   2.5698   2.6216

          k =-0.3750-0.1250-0.3750 (132616 PWs)   bands (ev):

   -18.5508 -18.4937 -18.4555 -18.3309 -18.2953 -18.2794 -18.2759 -18.2742
   -18.2666 -18.2651 -18.2627 -18.2622 -18.2550 -18.2519 -18.2473 -18.2462
   -18.2418 -18.2381 -18.2329 -18.2315 -18.2284 -18.2240 -18.2227 -18.1929
   -18.1884 -18.1853 -18.1845 -18.1844 -18.1839 -18.1828 -18.1742 -18.1735
   -18.1722 -18.1721 -18.1697 -18.1681 -18.1674 -18.1577 -18.1573 -18.1570
   -18.1485 -18.1480 -18.1438 -18.1208 -18.1118 -18.1011 -18.0946 -18.0929
    -9.5158  -9.3663  -9.3377  -9.3044  -9.2134  -9.1421  -9.1181  -9.0402
    -8.9998  -8.9636  -8.9578  -8.9111  -8.8799  -8.8496  -8.8361  -8.8182
    -8.8022  -8.7512  -8.7338  -8.7053  -8.6505  -8.5860  -8.5751  -8.3450
    -5.3191  -5.3097  -5.3027  -5.2701  -5.2592  -5.2537  -5.2294  -5.2259
    -5.2078  -5.1160  -5.1004  -5.0945  -5.0824  -5.0734  -5.0642  -5.0625
    -5.0561  -5.0499  -5.0448  -5.0310  -5.0257  -5.0160  -5.0133  -5.0018
    -4.1858  -3.9925  -3.9501  -3.7848  -3.5997  -3.4121  -3.3670  -3.1590
    -0.7127  -0.6121  -0.5672  -0.4961  -0.3592  -0.3018  -0.2306  -0.1517
    -0.0756   0.0151   0.1057   0.2000   0.3275   0.3567   0.4364   0.4489
     0.4948   0.5256   0.5719   0.6098   0.6461   0.6730   0.6972   0.7645
     0.8057   0.8468   0.8955   0.9229   0.9793   1.0022   1.0691   1.1352
     1.1468   1.1598   1.2032   1.2495   1.2850   1.2957   1.3230   1.3551
     1.3825   1.4200   1.4277   1.4705   1.5091   1.5245   1.5678   1.5787
     1.5962   1.6333   1.6565   1.6943   1.7141   1.7349   1.7639   1.7797
     1.7944   1.8350   1.8570   1.8869   1.9041   1.9514   1.9924   2.0380
     2.0495   2.1195   2.1812   2.2492   2.3446   2.4044   2.5888   2.6601

          k = 0.3750-0.1250 0.3750 (132616 PWs)   bands (ev):

   -18.5508 -18.4937 -18.4555 -18.3309 -18.2953 -18.2794 -18.2759 -18.2742
   -18.2666 -18.2651 -18.2627 -18.2622 -18.2550 -18.2519 -18.2473 -18.2462
   -18.2418 -18.2381 -18.2329 -18.2315 -18.2284 -18.2240 -18.2227 -18.1929
   -18.1884 -18.1853 -18.1845 -18.1844 -18.1839 -18.1828 -18.1742 -18.1735
   -18.1722 -18.1721 -18.1697 -18.1681 -18.1674 -18.1577 -18.1573 -18.1570
   -18.1485 -18.1480 -18.1438 -18.1208 -18.1118 -18.1011 -18.0946 -18.0929
    -9.5157  -9.3672  -9.3361  -9.3077  -9.2092  -9.1419  -9.1165  -9.0461
    -8.9989  -8.9646  -8.9567  -8.9046  -8.8879  -8.8504  -8.8359  -8.8104
    -8.8057  -8.7520  -8.7350  -8.7043  -8.6496  -8.5881  -8.5738  -8.3450
    -5.3191  -5.3097  -5.3027  -5.2700  -5.2591  -5.2539  -5.2296  -5.2259
    -5.2076  -5.1160  -5.1004  -5.0945  -5.0824  -5.0733  -5.0642  -5.0626
    -5.0563  -5.0497  -5.0449  -5.0307  -5.0257  -5.0161  -5.0134  -5.0019
    -4.1860  -3.9952  -3.9533  -3.7786  -3.5936  -3.4163  -3.3639  -3.1656
    -0.6897  -0.6123  -0.5788  -0.4910  -0.3544  -0.2964  -0.2377  -0.1493
    -0.0943   0.0023   0.0815   0.1917   0.3319   0.3865   0.4320   0.4530
     0.5037   0.5315   0.5589   0.5999   0.6353   0.6812   0.7138   0.7649
     0.8167   0.8494   0.8905   0.9241   0.9799   1.0296   1.0449   1.0870
     1.1535   1.1901   1.2094   1.2598   1.2804   1.2910   1.3372   1.3552
     1.3736   1.4163   1.4425   1.4752   1.4854   1.5300   1.5434   1.5770
     1.6000   1.6461   1.6688   1.6872   1.7128   1.7273   1.7709   1.7772
     1.7898   1.8368   1.8561   1.8858   1.9110   1.9498   1.9905   2.0539
     2.0696   2.1058   2.1751   2.2405   2.3661   2.4152   2.5616   2.6389

          k =-0.3750 0.1250 0.3750 (132616 PWs)   bands (ev):

   -18.5508 -18.4937 -18.4555 -18.3309 -18.2953 -18.2794 -18.2759 -18.2742
   -18.2666 -18.2651 -18.2627 -18.2622 -18.2550 -18.2519 -18.2473 -18.2462
   -18.2418 -18.2381 -18.2329 -18.2315 -18.2284 -18.2240 -18.2227 -18.1929
   -18.1884 -18.1853 -18.1845 -18.1844 -18.1839 -18.1828 -18.1742 -18.1735
   -18.1722 -18.1721 -18.1697 -18.1681 -18.1674 -18.1577 -18.1573 -18.1570
   -18.1485 -18.1480 -18.1438 -18.1208 -18.1118 -18.1011 -18.0946 -18.0929
    -9.5155  -9.3657  -9.3441  -9.2996  -9.2070  -9.1533  -9.1080  -9.0474
    -9.0014  -8.9670  -8.9515  -8.9116  -8.8777  -8.8449  -8.8369  -8.8216
    -8.8038  -8.7491  -8.7358  -8.7056  -8.6483  -8.5916  -8.5709  -8.3450
    -5.3191  -5.3097  -5.3027  -5.2700  -5.2591  -5.2539  -5.2295  -5.2260
    -5.2076  -5.1161  -5.1004  -5.0943  -5.0825  -5.0733  -5.0643  -5.0627
    -5.0565  -5.0496  -5.0446  -5.0312  -5.0255  -5.0160  -5.0135  -5.0019
    -4.1821  -4.0106  -3.9481  -3.7599  -3.6085  -3.4282  -3.3499  -3.1646
    -0.7107  -0.6105  -0.5755  -0.4855  -0.3786  -0.2575  -0.2073  -0.1574
    -0.1061   0.0151   0.0996   0.1499   0.3149   0.3878   0.4156   0.4683
     0.5014   0.5322   0.5960   0.6069   0.6233   0.6554   0.7145   0.7726
     0.8079   0.8327   0.8932   0.9451   0.9735   1.0115   1.0614   1.1154
     1.1427   1.1917   1.2097   1.2444   1.2731   1.3040   1.3172   1.3470
     1.3748   1.4293   1.4440   1.4694   1.5084   1.5451   1.5619   1.5759
     1.6028   1.6365   1.6443   1.6839   1.7031   1.7363   1.7505   1.7786
     1.8146   1.8235   1.8573   1.8976   1.9209   1.9421   1.9717   2.0398
     2.0854   2.1058   2.1655   2.2491   2.3299   2.4425   2.5889   2.6355

          k = 0.3750-0.3750 0.1250 (132616 PWs)   bands (ev):

   -18.5508 -18.4937 -18.4555 -18.3309 -18.2953 -18.2794 -18.2759 -18.2742
   -18.2666 -18.2651 -18.2627 -18.2622 -18.2550 -18.2519 -18.2473 -18.2462
   -18.2418 -18.2381 -18.2329 -18.2315 -18.2284 -18.2240 -18.2227 -18.1929
   -18.1884 -18.1853 -18.1845 -18.1844 -18.1838 -18.1828 -18.1742 -18.1735
   -18.1722 -18.1721 -18.1697 -18.1682 -18.1673 -18.1577 -18.1573 -18.1570
   -18.1485 -18.1480 -18.1438 -18.1208 -18.1118 -18.1011 -18.0946 -18.0929
    -9.5199  -9.3653  -9.3258  -9.2895  -9.2218  -9.1787  -9.1167  -9.0429
    -8.9852  -8.9618  -8.9413  -8.9072  -8.8853  -8.8735  -8.8337  -8.8017
    -8.7764  -8.7600  -8.7508  -8.7125  -8.6454  -8.5894  -8.5739  -8.3446
    -5.3191  -5.3097  -5.3028  -5.2701  -5.2587  -5.2542  -5.2295  -5.2256
    -5.2073  -5.1159  -5.1002  -5.0944  -5.0823  -5.0735  -5.0639  -5.0619
    -5.0574  -5.0501  -5.0450  -5.0308  -5.0256  -5.0168  -5.0129  -5.0019
    -4.1904  -4.0384  -3.8654  -3.7295  -3.6524  -3.5145  -3.3206  -3.1538
    -0.6108  -0.5540  -0.5334  -0.4825  -0.3882  -0.2917  -0.2427  -0.2082
    -0.1568  -0.0079   0.0666   0.1508   0.3015   0.4083   0.4303   0.4728
     0.4846   0.5460   0.5616   0.5965   0.6206   0.6824   0.7134   0.7659
     0.8232   0.8705   0.9030   0.9510   0.9840   1.0374   1.0410   1.0745
     1.1258   1.1509   1.2058   1.2224   1.2792   1.2992   1.3383   1.3557
     1.3890   1.4377   1.4622   1.5031   1.5227   1.5338   1.5836   1.5894
     1.5950   1.6397   1.6485   1.6817   1.6971   1.7173   1.7403   1.7657
     1.7962   1.8337   1.8699   1.8862   1.9168   1.9511   1.9938   2.0123
     2.0862   2.1050   2.1669   2.2294   2.3080   2.4693   2.5681   2.6730

          k =-0.3750-0.3750-0.1250 (132616 PWs)   bands (ev):

   -18.5508 -18.4937 -18.4555 -18.3309 -18.2953 -18.2794 -18.2759 -18.2742
   -18.2666 -18.2651 -18.2627 -18.2622 -18.2550 -18.2519 -18.2473 -18.2462
   -18.2418 -18.2381 -18.2329 -18.2315 -18.2284 -18.2240 -18.2227 -18.1929
   -18.1884 -18.1853 -18.1845 -18.1844 -18.1838 -18.1828 -18.1742 -18.1735
   -18.1722 -18.1721 -18.1697 -18.1682 -18.1673 -18.1577 -18.1573 -18.1570
   -18.1485 -18.1480 -18.1438 -18.1208 -18.1118 -18.1011 -18.0946 -18.0929
    -9.5201  -9.3624  -9.3312  -9.2829  -9.2274  -9.1792  -9.1166  -9.0394
    -8.9880  -8.9597  -8.9387  -8.9126  -8.8873  -8.8631  -8.8396  -8.7997
    -8.7841  -8.7552  -8.7491  -8.7135  -8.6467  -8.5849  -8.5773  -8.3446
    -5.3190  -5.3097  -5.3028  -5.2702  -5.2588  -5.2540  -5.2294  -5.2255
    -5.2076  -5.1160  -5.1002  -5.0944  -5.0823  -5.0737  -5.0640  -5.0619
    -5.0573  -5.0501  -5.0449  -5.0313  -5.0254  -5.0167  -5.0128  -5.0018
    -4.1896  -4.0366  -3.8709  -3.7130  -3.6580  -3.5377  -3.3060  -3.1518
    -0.6460  -0.5637  -0.5079  -0.4804  -0.3746  -0.3166  -0.2477  -0.2053
    -0.1227  -0.0160   0.1107   0.1578   0.2858   0.3727   0.4215   0.4520
     0.5116   0.5435   0.5907   0.6058   0.6335   0.6887   0.7059   0.7391
     0.7841   0.8865   0.9135   0.9633   0.9909   1.0131   1.0348   1.0786
     1.1125   1.1640   1.1909   1.2205   1.2639   1.2927   1.3474   1.3718
     1.4008   1.4403   1.4648   1.5084   1.5241   1.5512   1.5546   1.5963
     1.6118   1.6447   1.6522   1.6634   1.6944   1.7221   1.7424   1.7780
     1.7967   1.8257   1.8489   1.8851   1.9086   1.9404   1.9931   2.0282
     2.0597   2.1338   2.1623   2.2243   2.3191   2.4213   2.6173   2.6884

          k = 0.3750 0.3750-0.1250 (132616 PWs)   bands (ev):

   -18.5508 -18.4937 -18.4555 -18.3309 -18.2953 -18.2794 -18.2759 -18.2742
   -18.2666 -18.2651 -18.2627 -18.2622 -18.2550 -18.2519 -18.2473 -18.2462
   -18.2418 -18.2381 -18.2329 -18.2315 -18.2284 -18.2240 -18.2227 -18.1929
   -18.1884 -18.1853 -18.1845 -18.1844 -18.1838 -18.1828 -18.1742 -18.1735
   -18.1722 -18.1721 -18.1697 -18.1682 -18.1673 -18.1577 -18.1573 -18.1570
   -18.1485 -18.1480 -18.1438 -18.1208 -18.1118 -18.1011 -18.0946 -18.0929
    -9.5200  -9.3630  -9.3307  -9.2835  -9.2270  -9.1799  -9.1151  -9.0416
    -8.9846  -8.9590  -8.9387  -8.9095  -8.8886  -8.8747  -8.8324  -8.8047
    -8.7764  -8.7585  -8.7500  -8.7123  -8.6454  -8.5877  -8.5754  -8.3446
    -5.3190  -5.3097  -5.3028  -5.2702  -5.2588  -5.2539  -5.2294  -5.2256
    -5.2075  -5.1160  -5.1002  -5.0942  -5.0822  -5.0737  -5.0640  -5.0620
    -5.0576  -5.0502  -5.0447  -5.0311  -5.0254  -5.0169  -5.0127  -5.0018
    -4.1869  -4.0399  -3.8746  -3.7245  -3.6407  -3.5334  -3.3071  -3.1574
    -0.6306  -0.5455  -0.5070  -0.4949  -0.3929  -0.3057  -0.2535  -0.2028
    -0.1329  -0.0079   0.0973   0.1382   0.2903   0.3836   0.4113   0.4612
     0.5126   0.5277   0.5803   0.6052   0.6497   0.6728   0.7390   0.7499
     0.7844   0.8788   0.9263   0.9560   0.9958   1.0127   1.0417   1.0804
     1.1105   1.1531   1.1954   1.2218   1.2733   1.2964   1.3422   1.3605
     1.4105   1.4283   1.4565   1.4886   1.5261   1.5348   1.5736   1.5963
     1.6304   1.6402   1.6528   1.6769   1.6960   1.7169   1.7394   1.7721
     1.8014   1.8204   1.8810   1.8853   1.9127   1.9402   1.9854   2.0149
     2.0456   2.1452   2.1706   2.2120   2.3270   2.4286   2.6111   2.6645

          k =-0.3750 0.3750 0.1250 (132616 PWs)   bands (ev):

   -18.5508 -18.4937 -18.4555 -18.3309 -18.2953 -18.2794 -18.2759 -18.2742
   -18.2666 -18.2651 -18.2627 -18.2622 -18.2550 -18.2519 -18.2473 -18.2462
   -18.2418 -18.2381 -18.2329 -18.2315 -18.2284 -18.2240 -18.2227 -18.1929
   -18.1884 -18.1853 -18.1845 -18.1844 -18.1838 -18.1828 -18.1742 -18.1735
   -18.1722 -18.1721 -18.1697 -18.1682 -18.1673 -18.1577 -18.1573 -18.1570
   -18.1485 -18.1480 -18.1438 -18.1208 -18.1118 -18.1011 -18.0946 -18.0929
    -9.5198  -9.3658  -9.3274  -9.2865  -9.2219  -9.1805  -9.1143  -9.0454
    -8.9876  -8.9615  -8.9373  -8.9128  -8.8862  -8.8605  -8.8372  -8.8064
    -8.7783  -8.7569  -8.7507  -8.7135  -8.6445  -8.5921  -8.5717  -8.3446
    -5.3191  -5.3097  -5.3028  -5.2701  -5.2587  -5.2542  -5.2295  -5.2256
    -5.2074  -5.1160  -5.1002  -5.0942  -5.0823  -5.0735  -5.0640  -5.0621
    -5.0577  -5.0500  -5.0446  -5.0310  -5.0255  -5.0168  -5.0129  -5.0019
    -4.1890  -4.0407  -3.8601  -3.7418  -3.6431  -3.5163  -3.3230  -3.1504
    -0.6573  -0.5458  -0.5191  -0.4668  -0.3701  -0.2891  -0.2479  -0.2138
    -0.1452   0.0067   0.0657   0.1377   0.2861   0.3945   0.4320   0.4807
     0.4977   0.5385   0.5611   0.6076   0.6400   0.6636   0.7046   0.7408
     0.8128   0.8731   0.9021   0.9620   0.9812   1.0357   1.0567   1.1004
     1.1301   1.1442   1.1770   1.2331   1.2626   1.2923   1.3397   1.3810
     1.4089   1.4224   1.4695   1.4907   1.5131   1.5506   1.5655   1.5928
     1.6152   1.6461   1.6629   1.6778   1.6893   1.7248   1.7400   1.7833
     1.7896   1.8295   1.8520   1.8814   1.9234   1.9359   1.9706   2.0042
     2.0953   2.1127   2.1724   2.2127   2.3015   2.4827   2.5758   2.6891

          k =-0.3750-0.3750 0.3750 (132612 PWs)   bands (ev):

   -18.5508 -18.4937 -18.4555 -18.3309 -18.2953 -18.2794 -18.2759 -18.2742
   -18.2666 -18.2651 -18.2627 -18.2622 -18.2550 -18.2519 -18.2473 -18.2462
   -18.2418 -18.2381 -18.2329 -18.2315 -18.2284 -18.2240 -18.2227 -18.1929
   -18.1884 -18.1853 -18.1845 -18.1844 -18.1839 -18.1828 -18.1742 -18.1735
   -18.1722 -18.1721 -18.1697 -18.1681 -18.1674 -18.1577 -18.1573 -18.1570
   -18.1485 -18.1480 -18.1438 -18.1208 -18.1118 -18.1011 -18.0946 -18.0929
    -9.5114  -9.3553  -9.3393  -9.3011  -9.2189  -9.1711  -9.1280  -9.0477
    -8.9902  -8.9650  -8.9460  -8.9013  -8.8895  -8.8596  -8.8296  -8.7955
    -8.7819  -8.7481  -8.7365  -8.7215  -8.6541  -8.5905  -8.5759  -8.3453
    -5.3190  -5.3097  -5.3028  -5.2702  -5.2588  -5.2540  -5.2295  -5.2257
    -5.2077  -5.1160  -5.1001  -5.0944  -5.0822  -5.0737  -5.0641  -5.0618
    -5.0574  -5.0497  -5.0450  -5.0311  -5.0256  -5.0164  -5.0127  -5.0017
    -4.0659  -3.9412  -3.8667  -3.7362  -3.6893  -3.5649  -3.4551  -3.3438
    -0.4718  -0.4052  -0.3764  -0.2819  -0.2484  -0.2412  -0.1647  -0.1146
    -0.0736   0.0223   0.1328   0.1774   0.2973   0.3242   0.3908   0.4353
     0.4494   0.4962   0.5062   0.5440   0.5795   0.6583   0.7122   0.7244
     0.8254   0.8371   0.8884   0.9181   0.9541   0.9708   1.0176   1.0505
     1.0959   1.1049   1.1525   1.1846   1.2140   1.2387   1.2998   1.3138
     1.3570   1.3893   1.4472   1.4878   1.5402   1.5531   1.5877   1.6103
     1.6516   1.6609   1.6901   1.7143   1.7216   1.7398   1.7757   1.7901
     1.8139   1.8270   1.8706   1.8848   1.8972   1.9375   1.9611   1.9958
     2.0107   2.0751   2.1108   2.1491   2.1945   2.2657   2.3271   2.3588

          k =-0.3750 0.3750-0.3750 (132612 PWs)   bands (ev):

   -18.5508 -18.4937 -18.4555 -18.3309 -18.2953 -18.2794 -18.2759 -18.2742
   -18.2666 -18.2651 -18.2627 -18.2622 -18.2550 -18.2519 -18.2473 -18.2462
   -18.2418 -18.2381 -18.2329 -18.2315 -18.2284 -18.2240 -18.2227 -18.1929
   -18.1884 -18.1853 -18.1845 -18.1844 -18.1839 -18.1828 -18.1742 -18.1735
   -18.1722 -18.1721 -18.1697 -18.1681 -18.1674 -18.1577 -18.1573 -18.1570
   -18.1485 -18.1480 -18.1438 -18.1208 -18.1118 -18.1011 -18.0946 -18.0929
    -9.5114  -9.3555  -9.3385  -9.3042  -9.2148  -9.1676  -9.1314  -9.0499
    -8.9913  -8.9666  -8.9458  -8.8995  -8.8895  -8.8586  -8.8272  -8.7945
    -8.7831  -8.7509  -8.7346  -8.7218  -8.6547  -8.5902  -8.5760  -8.3453
    -5.3191  -5.3097  -5.3027  -5.2701  -5.2588  -5.2542  -5.2297  -5.2257
    -5.2075  -5.1159  -5.1001  -5.0945  -5.0823  -5.0735  -5.0640  -5.0618
    -5.0573  -5.0495  -5.0453  -5.0310  -5.0255  -5.0164  -5.0129  -5.0019
    -4.0745  -3.9366  -3.8518  -3.7572  -3.6624  -3.5790  -3.4630  -3.3389
    -0.4476  -0.4229  -0.3628  -0.3105  -0.2481  -0.2122  -0.1832  -0.1225
    -0.0468  -0.0110   0.0951   0.2147   0.3112   0.3318   0.3959   0.4315
     0.4502   0.4947   0.5181   0.5399   0.5788   0.6359   0.6985   0.7442
     0.8044   0.8637   0.8859   0.9249   0.9565   0.9705   0.9946   1.0485
     1.0797   1.1123   1.1593   1.1962   1.2217   1.2513   1.2900   1.3042
     1.3546   1.4171   1.4540   1.4652   1.5357   1.5666   1.5784   1.5941
     1.6253   1.6685   1.6968   1.7185   1.7321   1.7448   1.7622   1.7873
     1.7990   1.8485   1.8652   1.8823   1.9145   1.9350   1.9619   2.0174
     2.0469   2.0546   2.0827   2.1523   2.1958   2.2652   2.3178   2.3582

          k = 0.3750-0.3750-0.3750 (132612 PWs)   bands (ev):

   -18.5508 -18.4937 -18.4555 -18.3309 -18.2953 -18.2794 -18.2759 -18.2742
   -18.2666 -18.2651 -18.2627 -18.2622 -18.2550 -18.2519 -18.2473 -18.2462
   -18.2418 -18.2381 -18.2329 -18.2315 -18.2284 -18.2240 -18.2227 -18.1929
   -18.1884 -18.1853 -18.1844 -18.1844 -18.1839 -18.1828 -18.1742 -18.1735
   -18.1722 -18.1721 -18.1697 -18.1681 -18.1674 -18.1577 -18.1573 -18.1570
   -18.1485 -18.1480 -18.1438 -18.1208 -18.1118 -18.1011 -18.0946 -18.0929
    -9.5113  -9.3539  -9.3435  -9.2999  -9.2142  -9.1724  -9.1262  -9.0528
    -8.9941  -8.9633  -8.9457  -8.9078  -8.8785  -8.8559  -8.8304  -8.7963
    -8.7841  -8.7487  -8.7354  -8.7229  -8.6536  -8.5932  -8.5735  -8.3453
    -5.3190  -5.3097  -5.3027  -5.2702  -5.2587  -5.2542  -5.2296  -5.2258
    -5.2075  -5.1160  -5.1001  -5.0943  -5.0823  -5.0735  -5.0641  -5.0619
    -5.0576  -5.0495  -5.0449  -5.0312  -5.0254  -5.0163  -5.0129  -5.0018
    -4.0714  -3.9381  -3.8611  -3.7415  -3.6770  -3.5618  -3.4828  -3.3293
    -0.5168  -0.4061  -0.3332  -0.2926  -0.2519  -0.2127  -0.1626  -0.0917
    -0.0584   0.0052   0.1223   0.1814   0.2614   0.3042   0.3832   0.4338
     0.4719   0.5007   0.5268   0.5638   0.5849   0.6321   0.6821   0.7156
     0.8214   0.8409   0.8770   0.9212   0.9473   0.9916   1.0530   1.0608
     1.0859   1.1065   1.1544   1.1665   1.2120   1.2348   1.2820   1.3208
     1.3490   1.4270   1.4663   1.5052   1.5340   1.5441   1.5954   1.6074
     1.6237   1.6584   1.6777   1.7001   1.7329   1.7433   1.7807   1.7902
     1.8241   1.8292   1.8523   1.8707   1.8981   1.9286   1.9640   2.0051
     2.0518   2.0687   2.1047   2.1428   2.1888   2.2240   2.3292   2.4030

     highest occupied level (ev):     3.1748

!    total energy              =   -2256.29001586 Ry
     estimated scf accuracy    <          5.7E-11 Ry

     The total energy is the sum of the following terms:
     one-electron contribution =    -991.72315210 Ry
     hartree contribution      =     624.01638277 Ry
     xc contribution           =    -647.55372775 Ry
     ewald contribution        =   -1241.02951878 Ry

     convergence has been achieved in  15 iterations

     Forces acting on atoms (cartesian axes, Ry/au):

     atom    1 type  1   force =     0.00553519   -0.00952840   -0.00073186
     atom    2 type  2   force =     0.01022292    0.02065549    0.00231070
     atom    3 type  3   force =    -0.00211182    0.00219413   -0.00432230
     atom    4 type  3   force =    -0.00129335    0.00297115    0.00769054
     atom    5 type  3   force =     0.00530618    0.00034887    0.00397940
     atom    6 type  1   force =    -0.00290001   -0.00123575   -0.00415185
     atom    7 type  2   force =     0.02207012    0.00866969   -0.00422850
     atom    8 type  3   force =     0.00149360   -0.00091341   -0.00052689
     atom    9 type  3   force =    -0.00144912   -0.00296491   -0.01074873
     atom   10 type  3   force =     0.01288394    0.00421208   -0.00570263
     atom   11 type  1   force =     0.01008571    0.01234370   -0.00089526
     atom   12 type  2   force =    -0.03838910   -0.00137486   -0.00024874
     atom   13 type  3   force =     0.03730046   -0.00184052    0.00222623
     atom   14 type  3   force =    -0.01050686   -0.01034459   -0.00261477
     atom   15 type  3   force =    -0.00296706   -0.00472850    0.00733650
     atom   16 type  1   force =    -0.00210817    0.00090318   -0.00048611
     atom   17 type  2   force =    -0.01084124   -0.00079688    0.00263405
     atom   18 type  3   force =     0.00615383    0.00005769   -0.00185442
     atom   19 type  3   force =    -0.00963354   -0.00486057   -0.00675376
     atom   20 type  3   force =     0.00028202   -0.01138532    0.01059274
     atom   21 type  1   force =     0.00112711    0.00222928    0.00170479
     atom   22 type  2   force =    -0.01343144    0.00181191    0.01062946
     atom   23 type  3   force =    -0.00249126    0.00433000    0.00045187
     atom   24 type  3   force =     0.00514748   -0.00633101    0.00052097
     atom   25 type  3   force =     0.00519085   -0.00054424    0.00360076
     atom   26 type  1   force =    -0.00221741    0.00753543    0.00702686
     atom   27 type  2   force =    -0.02095575    0.00533025   -0.00618751
     atom   28 type  3   force =    -0.01250863   -0.01356153   -0.00557625
     atom   29 type  3   force =     0.00198933    0.00071153   -0.00533780
     atom   30 type  3   force =    -0.00377056    0.00569366    0.00443308
     atom   31 type  1   force =    -0.00384343   -0.00212323   -0.00285275
     atom   32 type  2   force =    -0.00101081   -0.01176761   -0.00567453
     atom   33 type  3   force =    -0.00187367    0.00285501    0.00060680
     atom   34 type  3   force =    -0.00367808   -0.00061987   -0.00053791
     atom   35 type  3   force =     0.00183249   -0.00111805   -0.00110172
     atom   36 type  1   force =     0.00146142    0.00060485    0.00132163
     atom   37 type  2   force =     0.02242601   -0.00257688   -0.00066675
     atom   38 type  3   force =    -0.00344341    0.01028919    0.00219187
     atom   39 type  3   force =    -0.00267221    0.00235424   -0.00295233
     atom   40 type  3   force =     0.00358826   -0.00748518    0.00489513

     Total force =     0.090977     Total SCF correction =     0.000039


     Computing stress (Cartesian axis) and pressure

          total   stress  (Ry/bohr**3)                   (kbar)     P=       -6.25
  -0.00003051   0.00000128  -0.00000256           -4.49        0.19       -0.38
   0.00000128  -0.00004015   0.00000430            0.19       -5.91        0.63
  -0.00000256   0.00000430  -0.00005689           -0.38        0.63       -8.37

 
     init_run     :     20.12s CPU     17.24s WALL (       1 calls)
     electrons    :    200.90s CPU    212.94s WALL (       1 calls)
     forces       :      8.77s CPU      3.95s WALL (       1 calls)
     stress       :     31.74s CPU     30.97s WALL (       1 calls)

     Called by init_run:
     wfcinit      :     12.15s CPU     14.19s WALL (       1 calls)
                                       14.19s GPU  (       1 calls)
     potinit      :      4.59s CPU      1.40s WALL (       1 calls)
     hinit0       :      2.80s CPU      0.99s WALL (       1 calls)

     Called by electrons:
     c_bands      :    119.79s CPU    170.53s WALL (      16 calls)
     sum_band     :     21.96s CPU     21.12s WALL (      16 calls)
                                       21.12s GPU  (      16 calls)
     v_of_rho     :     54.87s CPU     16.61s WALL (      16 calls)
     mix_rho      :      6.52s CPU      5.02s WALL (      16 calls)

     Called by c_bands:
     init_us_2    :      2.21s CPU      2.98s WALL (     280 calls)
                                        2.98s GPU  (     280 calls)
     cegterg      :     80.72s CPU    129.06s WALL (     128 calls)

     Called by *egterg:
     cdiaghg      :     13.53s CPU     25.53s WALL (     644 calls)
                                       25.50s GPU  (     644 calls)
     h_psi        :     54.55s CPU     74.43s WALL (     660 calls)
                                       73.98s GPU  (     660 calls)
     g_psi        :      0.00s CPU      0.37s WALL (     524 calls)
                                        0.36s GPU  (     524 calls)

     Called by h_psi:
     h_psi:calbec :      0.31s CPU     10.06s WALL (     660 calls)
                                       10.05s GPU  (     660 calls)
     vloc_psi     :     39.57s CPU     54.29s WALL (     660 calls)
                                       53.37s GPU  (     660 calls)
     add_vuspsi   :      0.33s CPU     10.00s WALL (     660 calls)
                                        9.99s GPU  (     660 calls)

     General routines
     calbec       :      0.31s CPU      0.40s WALL (     700 calls)
     fft          :     25.61s CPU      6.53s WALL (     185 calls)
                                        0.00s GPU  (       6 calls)
     ffts         :      2.58s CPU      0.68s WALL (      16 calls)
     fftw         :      0.60s CPU     62.85s WALL (   10530 calls)
                                       46.94s GPU  (   10530 calls)
 
     Parallel routines
 
     PWSCF        :   4m22.18s CPU   4m25.90s WALL

 
   This run was terminated on:  21:20:49  22Apr2021            

=------------------------------------------------------------------------------=
   JOB DONE.
=------------------------------------------------------------------------------=
