
     Program PWSCF v.6.7MaX starts on 22Apr2021 at 21:46:36 

     This program is part of the open-source Quantum ESPRESSO suite
     for quantum simulation of materials; please cite
         "P. Giannozzi et al., J. Phys.:Condens. Matter 21 395502 (2009);
         "P. Giannozzi et al., J. Phys.:Condens. Matter 29 465901 (2017);
         "P. Giannozzi et al., J. Chem. Phys. 152 154105 (2020);
          URL http://www.quantum-espresso.org", 
     in publications or presentations arising from this work. More details at
     http://www.quantum-espresso.org/quote

     Parallel version (MPI & OpenMP), running on      16 processor cores
     Number of MPI processes:                 4
     Threads/MPI process:                     4

     MPI processes distributed on     1 nodes
     K-points division:     npool     =       4
     Reading input from ESP_19.pwi
Warning: card &CELL ignored
Warning: card / ignored

     Current dimensions of program PWSCF are:
     Max number of different atomic species (ntypx) = 10
     Max number of k-points (npk) =  40000
     Max angular momentum in pseudopotentials (lmaxx) =  3
     Message from routine read_pp_mesh:
     mesh size missing, using the one in header
     Message from routine read_pp_mesh:
     mesh size missing, using the one in header
     Message from routine read_pp_mesh:
     mesh size missing, using the one in header

     Subspace diagonalization in iterative solution of the eigenvalue problem:
     a serial algorithm will be used

 
     G-vector sticks info
     --------------------
     sticks:   dense  smooth     PW     G-vecs:    dense   smooth      PW
     Sum       12589   12589   3289              1061107  1061107  140905
 
     Using Slab Decomposition
 


     bravais-lattice index     =            0
     lattice parameter (alat)  =      23.7585  a.u.
     unit-cell volume          =   13410.8736 (a.u.)^3
     number of atoms/cell      =           40
     number of atomic types    =            3
     number of electrons       =       352.00
     number of Kohn-Sham states=          176
     kinetic-energy cutoff     =      70.0000  Ry
     charge density cutoff     =     280.0000  Ry
     scf convergence threshold =      1.0E-10
     mixing beta               =       0.7000
     number of iterations used =            8  plain     mixing
     Exchange-correlation= PBESOL
                           (   1   4  10   8   0   0   0)

     GPU acceleration is ACTIVE.


     celldm(1)=  23.758500  celldm(2)=   0.000000  celldm(3)=   0.000000
     celldm(4)=   0.000000  celldm(5)=   0.000000  celldm(6)=   0.000000

     crystal axes: (cart. coord. in units of alat)
               a(1) = (   1.000000   0.000000   0.000000 )  
               a(2) = (   0.000000   1.000000   0.000000 )  
               a(3) = (   0.000000   0.000000   1.000000 )  

     reciprocal axes: (cart. coord. in units 2 pi/alat)
               b(1) = (  1.000000  0.000000  0.000000 )  
               b(2) = (  0.000000  1.000000  0.000000 )  
               b(3) = (  0.000000  0.000000  1.000000 )  


     PseudoPot. # 1 for Cs read from file:
     /m100/home/userexternal/lmonacel/espresso/pseudo/Cs-nc-pbesol.upf
     MD5 check sum: 9d2f2206a14dc5b3b3f3fbfae186bed4
     Pseudo is Norm-conserving + core correction, Zval =  9.0
     Generated using ONCVPSP code by D. R. Hamann
     Using radial grid of 2384 points,  8 beta functions with: 
                l(1) =   0
                l(2) =   0
                l(3) =   1
                l(4) =   1
                l(5) =   2
                l(6) =   2
                l(7) =   3
                l(8) =   3

     PseudoPot. # 2 for Sn read from file:
     /m100/home/userexternal/lmonacel/espresso/pseudo/Sn-nc-pbesol.upf
     MD5 check sum: c2995d571af40102bfea7461443d92cf
     Pseudo is Norm-conserving + core correction, Zval = 14.0
     Generated using ONCVPSP code by D. R. Hamann
     Using radial grid of 1628 points,  6 beta functions with: 
                l(1) =   0
                l(2) =   0
                l(3) =   1
                l(4) =   1
                l(5) =   2
                l(6) =   2

     PseudoPot. # 3 for I  read from file:
     /m100/home/userexternal/lmonacel/espresso/pseudo/I-nc-pbesol.upf
     MD5 check sum: 80ed5ceb2eb9c553cfb6760a299d9c5b
     Pseudo is Norm-conserving + core correction, Zval =  7.0
     Generated using ONCVPSP code by D. R. Hamann
     Using radial grid of 1182 points,  6 beta functions with: 
                l(1) =   0
                l(2) =   0
                l(3) =   1
                l(4) =   1
                l(5) =   2
                l(6) =   2

     atomic species   valence    mass     pseudopotential
        Cs             9.00   132.90545     Cs( 1.00)
        Sn            14.00   118.71000     Sn( 1.00)
        I              7.00   126.90447     I ( 1.00)

     No symmetry found



   Cartesian axes

     site n.     atom                  positions (alat units)
         1           Cs  tau(   1) = (   0.2521022   0.2837093   0.2745029  )
         2           Sn  tau(   2) = (   0.0126615   0.0072661   0.0083680  )
         3           I   tau(   3) = (   0.2535156   0.0219010   0.0008976  )
         4           I   tau(   4) = (  -0.0020222  -0.0278901   0.2373274  )
         5           I   tau(   5) = (   0.0080349   0.2434653   0.0519081  )
         6           Cs  tau(   6) = (   0.2432243   0.2543890   0.7590386  )
         7           Sn  tau(   7) = (   0.0118718   0.0004624   0.5053907  )
         8           I   tau(   8) = (   0.2601320  -0.0093771   0.4839597  )
         9           I   tau(   9) = (   0.0467718   0.0363598   0.7438268  )
        10           I   tau(  10) = (  -0.0031917   0.2450120   0.4976057  )
        11           Cs  tau(  11) = (   0.2556304   0.7650034   0.2568629  )
        12           Sn  tau(  12) = (  -0.0231521   0.5104336   0.0222959  )
        13           I   tau(  13) = (   0.2122281   0.5430389  -0.0563701  )
        14           I   tau(  14) = (   0.0356622   0.4898498   0.2715926  )
        15           I   tau(  15) = (  -0.0430727   0.7434980  -0.0269074  )
        16           Cs  tau(  16) = (   0.2535016   0.7738428   0.7589370  )
        17           Sn  tau(  17) = (  -0.0107725   0.4883120   0.5347650  )
        18           I   tau(  18) = (   0.2632211   0.4653735   0.5329283  )
        19           I   tau(  19) = (  -0.0459055   0.4659390   0.7671538  )
        20           I   tau(  20) = (   0.0045160   0.7421177   0.5634667  )
        21           Cs  tau(  21) = (   0.7142481   0.2752645   0.2676649  )
        22           Sn  tau(  22) = (   0.5117853   0.0088092  -0.0095272  )
        23           I   tau(  23) = (   0.7685488   0.0005372  -0.0220940  )
        24           I   tau(  24) = (   0.4762202  -0.0557874   0.2435786  )
        25           I   tau(  25) = (   0.4890078   0.2433083   0.0125330  )
        26           Cs  tau(  26) = (   0.7549146   0.2185111   0.7530798  )
        27           Sn  tau(  27) = (   0.5138000   0.0012582   0.4817636  )
        28           I   tau(  28) = (   0.7626437   0.0142960   0.4768683  )
        29           I   tau(  29) = (   0.5201064  -0.0187712   0.7444441  )
        30           I   tau(  30) = (   0.5115812   0.2453267   0.4847108  )
        31           Cs  tau(  31) = (   0.7957094   0.7469485   0.2186579  )
        32           Sn  tau(  32) = (   0.4898340   0.5134730  -0.0149086  )
        33           I   tau(  33) = (   0.7169811   0.5316980   0.0465853  )
        34           I   tau(  34) = (   0.4777602   0.4863972   0.2342335  )
        35           I   tau(  35) = (   0.5060912   0.7461050  -0.0404129  )
        36           Cs  tau(  36) = (   0.7297269   0.7342411   0.7432380  )
        37           Sn  tau(  37) = (   0.5011715   0.5018732   0.4816949  )
        38           I   tau(  38) = (   0.7617451   0.5038018   0.4963311  )
        39           I   tau(  39) = (   0.4937885   0.5120708   0.7316838  )
        40           I   tau(  40) = (   0.5198887   0.7475369   0.4814479  )

     number of k points=    32
                       cart. coord. in units 2pi/alat
        k(    1) = (   0.1250000   0.1250000   0.1250000), wk =   0.0625000
        k(    2) = (   0.1250000   0.1250000   0.3750000), wk =   0.0625000
        k(    3) = (   0.1250000   0.3750000   0.3750000), wk =   0.0625000
        k(    4) = (   0.3750000   0.3750000   0.3750000), wk =   0.0625000
        k(    5) = (  -0.1250000  -0.1250000   0.1250000), wk =   0.0625000
        k(    6) = (  -0.1250000   0.1250000  -0.1250000), wk =   0.0625000
        k(    7) = (   0.1250000  -0.1250000  -0.1250000), wk =   0.0625000
        k(    8) = (  -0.1250000  -0.1250000   0.3750000), wk =   0.0625000
        k(    9) = (  -0.1250000   0.1250000  -0.3750000), wk =   0.0625000
        k(   10) = (   0.1250000  -0.1250000  -0.3750000), wk =   0.0625000
        k(   11) = (   0.3750000  -0.1250000   0.1250000), wk =   0.0625000
        k(   12) = (  -0.3750000  -0.1250000  -0.1250000), wk =   0.0625000
        k(   13) = (   0.3750000   0.1250000  -0.1250000), wk =   0.0625000
        k(   14) = (  -0.3750000   0.1250000   0.1250000), wk =   0.0625000
        k(   15) = (  -0.1250000   0.3750000   0.1250000), wk =   0.0625000
        k(   16) = (  -0.1250000  -0.3750000  -0.1250000), wk =   0.0625000
        k(   17) = (   0.1250000   0.3750000  -0.1250000), wk =   0.0625000
        k(   18) = (   0.1250000  -0.3750000   0.1250000), wk =   0.0625000
        k(   19) = (  -0.1250000  -0.3750000   0.3750000), wk =   0.0625000
        k(   20) = (  -0.1250000   0.3750000  -0.3750000), wk =   0.0625000
        k(   21) = (   0.1250000  -0.3750000  -0.3750000), wk =   0.0625000
        k(   22) = (   0.3750000   0.1250000  -0.3750000), wk =   0.0625000
        k(   23) = (  -0.3750000  -0.1250000  -0.3750000), wk =   0.0625000
        k(   24) = (   0.3750000  -0.1250000   0.3750000), wk =   0.0625000
        k(   25) = (  -0.3750000   0.1250000   0.3750000), wk =   0.0625000
        k(   26) = (   0.3750000  -0.3750000   0.1250000), wk =   0.0625000
        k(   27) = (  -0.3750000  -0.3750000  -0.1250000), wk =   0.0625000
        k(   28) = (   0.3750000   0.3750000  -0.1250000), wk =   0.0625000
        k(   29) = (  -0.3750000   0.3750000   0.1250000), wk =   0.0625000
        k(   30) = (  -0.3750000  -0.3750000   0.3750000), wk =   0.0625000
        k(   31) = (  -0.3750000   0.3750000  -0.3750000), wk =   0.0625000
        k(   32) = (   0.3750000  -0.3750000  -0.3750000), wk =   0.0625000

     Dense  grid:  1061107 G-vectors     FFT dimensions: ( 128, 128, 128)

     Estimated max dynamical RAM per process >       6.82 GB

     Estimated total dynamical RAM >      27.27 GB

     Initial potential from superposition of free atoms

     starting charge  351.69472, renormalised to  352.00000
     Starting wfcs are  208 randomized atomic wfcs

     total cpu time spent up to now is       17.5 secs

     Self-consistent Calculation

     iteration #  1     ecut=    70.00 Ry     beta= 0.70
     Davidson diagonalization with overlap
     ethr =  1.00E-02,  avg # of iterations =  1.9

     Threshold (ethr) on eigenvalues was too large:
     Diagonalizing with lowered threshold

     Davidson diagonalization with overlap
     ethr =  2.25E-04,  avg # of iterations =  4.0

     total cpu time spent up to now is       38.5 secs

     total energy              =   -2255.99748400 Ry
     estimated scf accuracy    <       0.69414570 Ry

     iteration #  2     ecut=    70.00 Ry     beta= 0.70
     Davidson diagonalization with overlap
     ethr =  1.97E-04,  avg # of iterations =  3.3

     total cpu time spent up to now is       51.2 secs

     total energy              =   -2256.20732497 Ry
     estimated scf accuracy    <       0.33723706 Ry

     iteration #  3     ecut=    70.00 Ry     beta= 0.70
     Davidson diagonalization with overlap
     ethr =  9.58E-05,  avg # of iterations =  2.7

     total cpu time spent up to now is       62.9 secs

     total energy              =   -2256.27179694 Ry
     estimated scf accuracy    <       0.03260708 Ry

     iteration #  4     ecut=    70.00 Ry     beta= 0.70
     Davidson diagonalization with overlap
     ethr =  9.26E-06,  avg # of iterations =  3.6

     total cpu time spent up to now is       75.5 secs

     total energy              =   -2256.28230807 Ry
     estimated scf accuracy    <       0.00510855 Ry

     iteration #  5     ecut=    70.00 Ry     beta= 0.70
     Davidson diagonalization with overlap
     ethr =  1.45E-06,  avg # of iterations =  3.3

     total cpu time spent up to now is       87.6 secs

     total energy              =   -2256.28321729 Ry
     estimated scf accuracy    <       0.00089203 Ry

     iteration #  6     ecut=    70.00 Ry     beta= 0.70
     Davidson diagonalization with overlap
     ethr =  2.53E-07,  avg # of iterations =  4.0

     total cpu time spent up to now is      100.5 secs

     total energy              =   -2256.28342086 Ry
     estimated scf accuracy    <       0.00015361 Ry

     iteration #  7     ecut=    70.00 Ry     beta= 0.70
     Davidson diagonalization with overlap
     ethr =  4.36E-08,  avg # of iterations =  4.3

     total cpu time spent up to now is      113.5 secs

     total energy              =   -2256.28345936 Ry
     estimated scf accuracy    <       0.00002710 Ry

     iteration #  8     ecut=    70.00 Ry     beta= 0.70
     Davidson diagonalization with overlap
     ethr =  7.70E-09,  avg # of iterations =  3.9

     total cpu time spent up to now is      127.1 secs

     total energy              =   -2256.28346969 Ry
     estimated scf accuracy    <       0.00000270 Ry

     iteration #  9     ecut=    70.00 Ry     beta= 0.70
     Davidson diagonalization with overlap
     ethr =  7.68E-10,  avg # of iterations =  5.3

     total cpu time spent up to now is      142.7 secs

     total energy              =   -2256.28347102 Ry
     estimated scf accuracy    <       0.00000113 Ry

     iteration # 10     ecut=    70.00 Ry     beta= 0.70
     Davidson diagonalization with overlap
     ethr =  3.22E-10,  avg # of iterations =  3.7

     total cpu time spent up to now is      155.8 secs

     total energy              =   -2256.28347131 Ry
     estimated scf accuracy    <       0.00000015 Ry

     iteration # 11     ecut=    70.00 Ry     beta= 0.70
     Davidson diagonalization with overlap
     ethr =  4.30E-11,  avg # of iterations =  5.6

     total cpu time spent up to now is      171.1 secs

     total energy              =   -2256.28347140 Ry
     estimated scf accuracy    <       0.00000003 Ry

     iteration # 12     ecut=    70.00 Ry     beta= 0.70
     Davidson diagonalization with overlap
     ethr =  9.01E-12,  avg # of iterations =  4.8

     total cpu time spent up to now is      185.7 secs

     total energy              =   -2256.28347142 Ry
     estimated scf accuracy    <       0.00000001 Ry

     iteration # 13     ecut=    70.00 Ry     beta= 0.70
     Davidson diagonalization with overlap
     ethr =  3.46E-12,  avg # of iterations =  4.0

     total cpu time spent up to now is      198.9 secs

     total energy              =   -2256.28347142 Ry
     estimated scf accuracy    <          9.2E-10 Ry

     iteration # 14     ecut=    70.00 Ry     beta= 0.70
     Davidson diagonalization with overlap
     ethr =  2.62E-13,  avg # of iterations =  6.1

     total cpu time spent up to now is      216.3 secs

     total energy              =   -2256.28347142 Ry
     estimated scf accuracy    <          2.3E-10 Ry

     iteration # 15     ecut=    70.00 Ry     beta= 0.70
     Davidson diagonalization with overlap
     ethr =  1.00E-13,  avg # of iterations =  3.1

     total cpu time spent up to now is      228.8 secs

     End of self-consistent calculation

          k = 0.1250 0.1250 0.1250 (132670 PWs)   bands (ev):

   -18.4851 -18.4371 -18.3927 -18.3424 -18.3395 -18.3383 -18.3356 -18.3318
   -18.3248 -18.3164 -18.3142 -18.3109 -18.3089 -18.3076 -18.3008 -18.2997
   -18.2973 -18.2969 -18.2919 -18.2911 -18.2900 -18.2882 -18.2862 -18.2849
   -18.2846 -18.2823 -18.2821 -18.2814 -18.2777 -18.2777 -18.2747 -18.2721
   -18.2695 -18.2693 -18.2623 -18.2086 -18.2027 -18.1966 -18.1891 -18.1827
   -18.1809 -18.1790 -18.1558 -18.1281 -18.1218 -18.1087 -18.1024 -18.0979
    -9.4528  -9.3262  -9.2604  -9.2071  -9.1175  -9.1036  -9.0671  -9.0277
    -8.9885  -8.9570  -8.9417  -8.9148  -8.9065  -8.8641  -8.8373  -8.8248
    -8.8154  -8.7580  -8.7119  -8.6798  -8.6516  -8.6048  -8.5807  -8.5674
    -5.2592  -5.2494  -5.2419  -5.2292  -5.2176  -5.2021  -5.1755  -5.1740
    -5.1622  -5.1386  -5.1097  -5.0965  -5.0722  -5.0587  -5.0521  -4.9955
    -4.9860  -4.9772  -4.9759  -4.9680  -4.9568  -4.9446  -4.9367  -4.9289
    -4.4271  -3.9545  -3.9240  -3.8668  -3.4111  -3.3961  -3.3418  -2.8024
    -0.8212  -0.7201  -0.6766  -0.6193  -0.5627  -0.4990  -0.4289  -0.4173
    -0.3609  -0.3395  -0.2345  -0.1181   0.4117   0.4533   0.5127   0.6306
     0.6344   0.6643   0.7179   0.7536   0.7930   0.8296   0.8525   0.9031
     0.9716   1.0068   1.0188   1.0555   1.0973   1.1250   1.1502   1.1760
     1.1936   1.2374   1.2682   1.2827   1.3267   1.3300   1.3585   1.3700
     1.3953   1.4102   1.4280   1.4730   1.4950   1.5428   1.5580   1.5844
     1.5964   1.6237   1.6409   1.6587   1.6665   1.6904   1.7251   1.7601
     1.7927   1.8186   1.8896   1.9547   1.9742   1.9896   2.0669   2.0970
     2.1219   2.1748   2.2688   2.2949   2.5416   2.6340   2.7485   3.0512

          k = 0.1250 0.1250 0.3750 (132608 PWs)   bands (ev):

   -18.4851 -18.4371 -18.3927 -18.3424 -18.3395 -18.3383 -18.3356 -18.3318
   -18.3248 -18.3164 -18.3142 -18.3109 -18.3089 -18.3076 -18.3008 -18.2997
   -18.2973 -18.2969 -18.2919 -18.2911 -18.2900 -18.2882 -18.2862 -18.2849
   -18.2846 -18.2823 -18.2821 -18.2814 -18.2777 -18.2777 -18.2747 -18.2721
   -18.2695 -18.2693 -18.2623 -18.2086 -18.2027 -18.1966 -18.1891 -18.1827
   -18.1809 -18.1790 -18.1558 -18.1281 -18.1218 -18.1087 -18.1024 -18.0979
    -9.4386  -9.3420  -9.2489  -9.1986  -9.1367  -9.1264  -9.0607  -9.0332
    -9.0020  -8.9625  -8.9361  -8.9139  -8.8971  -8.8679  -8.8235  -8.8125
    -8.7817  -8.7514  -8.7280  -8.6952  -8.6417  -8.6133  -8.5819  -8.5731
    -5.2590  -5.2493  -5.2418  -5.2292  -5.2176  -5.2021  -5.1756  -5.1738
    -5.1622  -5.1385  -5.1095  -5.0965  -5.0722  -5.0588  -5.0522  -4.9957
    -4.9863  -4.9771  -4.9759  -4.9681  -4.9571  -4.9448  -4.9367  -4.9289
    -4.3037  -4.1027  -3.8034  -3.7651  -3.5808  -3.5486  -3.2261  -3.0012
    -0.7467  -0.6818  -0.6434  -0.5880  -0.5302  -0.4541  -0.3758  -0.3265
    -0.1176  -0.0822   0.0649   0.1092   0.3756   0.4140   0.4933   0.5114
     0.5686   0.6010   0.6312   0.6773   0.6960   0.7204   0.7805   0.8138
     0.8560   0.9121   0.9433   0.9923   1.0453   1.0830   1.1253   1.1470
     1.1786   1.2142   1.2634   1.2776   1.2905   1.3261   1.3507   1.3751
     1.3843   1.4199   1.4541   1.4855   1.4899   1.5140   1.5566   1.5828
     1.5969   1.6233   1.6475   1.6767   1.6960   1.7294   1.7569   1.7753
     1.8094   1.8423   1.8574   1.9205   1.9629   1.9939   2.0200   2.0696
     2.0883   2.1532   2.2233   2.2806   2.3510   2.4272   2.7212   2.8048

          k = 0.1250 0.3750 0.3750 (132616 PWs)   bands (ev):

   -18.4851 -18.4371 -18.3927 -18.3424 -18.3395 -18.3383 -18.3356 -18.3318
   -18.3248 -18.3164 -18.3142 -18.3109 -18.3089 -18.3076 -18.3008 -18.2997
   -18.2973 -18.2969 -18.2919 -18.2911 -18.2900 -18.2882 -18.2862 -18.2849
   -18.2846 -18.2823 -18.2821 -18.2814 -18.2777 -18.2777 -18.2747 -18.2721
   -18.2695 -18.2693 -18.2623 -18.2086 -18.2027 -18.1966 -18.1891 -18.1827
   -18.1809 -18.1790 -18.1558 -18.1281 -18.1218 -18.1087 -18.1024 -18.0979
    -9.4302  -9.3312  -9.2598  -9.1916  -9.1629  -9.1334  -9.0702  -9.0540
    -8.9909  -8.9540  -8.9261  -8.9049  -8.8772  -8.8713  -8.8272  -8.8111
    -8.7834  -8.7396  -8.7323  -8.6955  -8.6397  -8.6155  -8.5890  -8.5759
    -5.2590  -5.2494  -5.2416  -5.2290  -5.2174  -5.2017  -5.1758  -5.1739
    -5.1624  -5.1384  -5.1095  -5.0966  -5.0722  -5.0586  -5.0518  -4.9958
    -4.9864  -4.9772  -4.9761  -4.9680  -4.9575  -4.9447  -4.9363  -4.9294
    -4.1740  -4.0156  -3.9177  -3.7578  -3.6483  -3.4742  -3.3712  -3.1991
    -0.6311  -0.6006  -0.5498  -0.4864  -0.3583  -0.2340  -0.1652  -0.1199
    -0.0643   0.0071   0.0836   0.1404   0.3087   0.4020   0.4144   0.4724
     0.5189   0.5369   0.5843   0.6172   0.6346   0.6666   0.6922   0.7361
     0.8037   0.8473   0.8925   0.9433   0.9934   1.0181   1.0655   1.0798
     1.1159   1.1842   1.2043   1.2225   1.2661   1.2986   1.3356   1.3673
     1.3870   1.4296   1.4706   1.5047   1.5204   1.5620   1.5920   1.6069
     1.6199   1.6388   1.6655   1.6872   1.7135   1.7331   1.7565   1.7903
     1.8075   1.8408   1.8657   1.8857   1.9290   1.9507   1.9896   2.0251
     2.0439   2.0837   2.1221   2.1657   2.2417   2.4051   2.4902   2.6166

          k = 0.3750 0.3750 0.3750 (132612 PWs)   bands (ev):

   -18.4851 -18.4371 -18.3927 -18.3423 -18.3395 -18.3383 -18.3356 -18.3318
   -18.3248 -18.3164 -18.3142 -18.3109 -18.3089 -18.3076 -18.3008 -18.2997
   -18.2973 -18.2969 -18.2919 -18.2911 -18.2900 -18.2882 -18.2862 -18.2849
   -18.2846 -18.2824 -18.2821 -18.2814 -18.2777 -18.2777 -18.2747 -18.2721
   -18.2695 -18.2693 -18.2623 -18.2086 -18.2027 -18.1966 -18.1891 -18.1827
   -18.1809 -18.1790 -18.1558 -18.1281 -18.1218 -18.1087 -18.1024 -18.0979
    -9.4262  -9.3206  -9.2426  -9.1990  -9.1745  -9.1464  -9.0986  -9.0740
    -8.9859  -8.9520  -8.9149  -8.9060  -8.8659  -8.8422  -8.8129  -8.8075
    -8.7871  -8.7430  -8.7388  -8.6992  -8.6417  -8.6161  -8.5938  -8.5781
    -5.2590  -5.2494  -5.2416  -5.2291  -5.2174  -5.2019  -5.1765  -5.1740
    -5.1620  -5.1383  -5.1087  -5.0968  -5.0722  -5.0586  -5.0519  -4.9957
    -4.9861  -4.9770  -4.9759  -4.9657  -4.9569  -4.9461  -4.9364  -4.9310
    -4.0669  -3.8992  -3.8430  -3.7821  -3.6501  -3.6232  -3.5272  -3.3715
    -0.4646  -0.3728  -0.3269  -0.2706  -0.2104  -0.1655  -0.1188  -0.0628
     0.0001   0.0275   0.0897   0.2057   0.2698   0.3214   0.3806   0.4095
     0.4558   0.5014   0.5332   0.5563   0.5818   0.5986   0.6466   0.6614
     0.8302   0.8523   0.8831   0.9259   0.9681   0.9966   1.0214   1.0622
     1.1103   1.1236   1.1402   1.1677   1.1879   1.2234   1.2704   1.3153
     1.3561   1.4047   1.4407   1.4823   1.5127   1.5488   1.5949   1.6215
     1.6602   1.6838   1.7210   1.7378   1.7500   1.7675   1.7835   1.8081
     1.8242   1.8466   1.8640   1.8723   1.8905   1.9539   1.9579   1.9835
     1.9958   2.0328   2.0711   2.1075   2.1627   2.1894   2.2963   2.3599

          k =-0.1250-0.1250 0.1250 (132670 PWs)   bands (ev):

   -18.4851 -18.4371 -18.3927 -18.3424 -18.3395 -18.3383 -18.3356 -18.3318
   -18.3248 -18.3164 -18.3142 -18.3109 -18.3089 -18.3076 -18.3008 -18.2997
   -18.2973 -18.2969 -18.2919 -18.2911 -18.2900 -18.2882 -18.2862 -18.2849
   -18.2846 -18.2823 -18.2821 -18.2814 -18.2777 -18.2777 -18.2747 -18.2721
   -18.2695 -18.2693 -18.2623 -18.2086 -18.2027 -18.1966 -18.1891 -18.1827
   -18.1809 -18.1790 -18.1558 -18.1281 -18.1218 -18.1087 -18.1024 -18.0979
    -9.4525  -9.3289  -9.2535  -9.2146  -9.1140  -9.1009  -9.0571  -9.0413
    -8.9915  -8.9615  -8.9343  -8.9197  -8.9001  -8.8703  -8.8382  -8.8157
    -8.8141  -8.7614  -8.7106  -8.6864  -8.6488  -8.6023  -8.5807  -8.5687
    -5.2592  -5.2494  -5.2419  -5.2293  -5.2176  -5.2022  -5.1755  -5.1740
    -5.1622  -5.1384  -5.1096  -5.0966  -5.0721  -5.0587  -5.0522  -4.9954
    -4.9860  -4.9774  -4.9761  -4.9678  -4.9568  -4.9445  -4.9367  -4.9288
    -4.4280  -3.9518  -3.9180  -3.8750  -3.4136  -3.3846  -3.3509  -2.8024
    -0.8172  -0.7390  -0.6617  -0.6253  -0.5346  -0.5005  -0.4588  -0.4035
    -0.3686  -0.3262  -0.2348  -0.1322   0.4104   0.4569   0.5143   0.6117
     0.6339   0.6767   0.7220   0.7447   0.7907   0.8414   0.8704   0.9091
     0.9533   0.9925   1.0191   1.0638   1.1148   1.1365   1.1441   1.1774
     1.2005   1.2281   1.2539   1.2737   1.2945   1.3341   1.3734   1.3803
     1.3872   1.4384   1.4436   1.4691   1.4821   1.5352   1.5605   1.5828
     1.5967   1.6089   1.6291   1.6654   1.6807   1.7057   1.7104   1.7581
     1.7993   1.8270   1.8770   1.9346   1.9782   2.0027   2.0650   2.1018
     2.1211   2.1634   2.2736   2.3043   2.5430   2.6366   2.7412   3.0518

          k =-0.1250 0.1250-0.1250 (132670 PWs)   bands (ev):

   -18.4851 -18.4371 -18.3927 -18.3424 -18.3395 -18.3383 -18.3356 -18.3318
   -18.3248 -18.3164 -18.3142 -18.3109 -18.3089 -18.3076 -18.3008 -18.2997
   -18.2973 -18.2969 -18.2919 -18.2911 -18.2900 -18.2882 -18.2862 -18.2849
   -18.2846 -18.2823 -18.2821 -18.2814 -18.2777 -18.2777 -18.2747 -18.2721
   -18.2695 -18.2693 -18.2623 -18.2086 -18.2027 -18.1966 -18.1891 -18.1827
   -18.1809 -18.1790 -18.1558 -18.1281 -18.1218 -18.1087 -18.1024 -18.0979
    -9.4526  -9.3282  -9.2510  -9.2202  -9.1124  -9.0930  -9.0699  -9.0352
    -8.9896  -8.9628  -8.9419  -8.9116  -8.9043  -8.8574  -8.8416  -8.8239
    -8.8133  -8.7625  -8.7093  -8.6845  -8.6494  -8.6030  -8.5810  -8.5682
    -5.2592  -5.2494  -5.2419  -5.2293  -5.2176  -5.2020  -5.1755  -5.1740
    -5.1621  -5.1384  -5.1097  -5.0966  -5.0721  -5.0587  -5.0522  -4.9954
    -4.9861  -4.9771  -4.9764  -4.9679  -4.9569  -4.9445  -4.9367  -4.9288
    -4.4271  -3.9604  -3.9223  -3.8615  -3.4292  -3.3774  -3.3433  -2.8026
    -0.8112  -0.7340  -0.6787  -0.6172  -0.5619  -0.5079  -0.4466  -0.3906
    -0.3620  -0.3368  -0.2289  -0.1186   0.4075   0.4512   0.5170   0.6154
     0.6402   0.6775   0.7171   0.7546   0.7864   0.8314   0.8576   0.9017
     0.9318   1.0189   1.0418   1.0556   1.0901   1.1294   1.1694   1.1828
     1.1989   1.2249   1.2560   1.2828   1.3138   1.3185   1.3668   1.3748
     1.3852   1.4154   1.4476   1.4818   1.4965   1.5184   1.5686   1.5815
     1.6061   1.6213   1.6332   1.6621   1.6735   1.6966   1.7209   1.7492
     1.7991   1.8262   1.8875   1.9504   1.9580   1.9947   2.0677   2.0906
     2.1156   2.1802   2.2740   2.2915   2.5265   2.6312   2.7780   3.0494

          k = 0.1250-0.1250-0.1250 (132670 PWs)   bands (ev):

   -18.4851 -18.4371 -18.3927 -18.3424 -18.3395 -18.3383 -18.3356 -18.3318
   -18.3248 -18.3164 -18.3142 -18.3109 -18.3089 -18.3076 -18.3008 -18.2997
   -18.2973 -18.2969 -18.2919 -18.2911 -18.2900 -18.2882 -18.2862 -18.2849
   -18.2846 -18.2823 -18.2821 -18.2814 -18.2777 -18.2777 -18.2747 -18.2721
   -18.2695 -18.2693 -18.2623 -18.2086 -18.2027 -18.1966 -18.1891 -18.1827
   -18.1809 -18.1790 -18.1558 -18.1281 -18.1218 -18.1087 -18.1024 -18.0979
    -9.4528  -9.3271  -9.2536  -9.2160  -9.1254  -9.0914  -9.0669  -9.0283
    -8.9820  -8.9582  -8.9426  -8.9250  -8.9028  -8.8665  -8.8417  -8.8227
    -8.8080  -8.7585  -8.7138  -8.6806  -8.6500  -8.6048  -8.5807  -8.5677
    -5.2592  -5.2495  -5.2419  -5.2293  -5.2176  -5.2021  -5.1755  -5.1741
    -5.1621  -5.1384  -5.1096  -5.0966  -5.0721  -5.0587  -5.0521  -4.9955
    -4.9861  -4.9770  -4.9761  -4.9681  -4.9569  -4.9446  -4.9367  -4.9288
    -4.4266  -3.9673  -3.9178  -3.8592  -3.4373  -3.3710  -3.3415  -2.8035
    -0.8125  -0.7430  -0.6616  -0.6087  -0.5499  -0.5149  -0.4544  -0.3934
    -0.3692  -0.3354  -0.2393  -0.1254   0.4106   0.4483   0.5197   0.6209
     0.6331   0.6830   0.7206   0.7511   0.8023   0.8397   0.8747   0.9120
     0.9341   0.9949   1.0279   1.0544   1.1053   1.1232   1.1432   1.1603
     1.1932   1.2409   1.2686   1.3020   1.3116   1.3261   1.3389   1.3675
     1.4124   1.4202   1.4514   1.4792   1.4993   1.5319   1.5649   1.5805
     1.5997   1.6076   1.6308   1.6500   1.6798   1.6988   1.7128   1.7620
     1.7840   1.8241   1.8835   1.9467   1.9764   2.0052   2.0666   2.0920
     2.1161   2.1686   2.2689   2.2998   2.5706   2.6160   2.7368   3.0479

          k =-0.1250-0.1250 0.3750 (132608 PWs)   bands (ev):

   -18.4851 -18.4371 -18.3927 -18.3424 -18.3395 -18.3383 -18.3356 -18.3318
   -18.3248 -18.3164 -18.3142 -18.3109 -18.3089 -18.3076 -18.3008 -18.2997
   -18.2973 -18.2969 -18.2919 -18.2911 -18.2900 -18.2882 -18.2862 -18.2849
   -18.2846 -18.2823 -18.2821 -18.2814 -18.2777 -18.2777 -18.2747 -18.2721
   -18.2695 -18.2693 -18.2623 -18.2086 -18.2027 -18.1966 -18.1891 -18.1827
   -18.1809 -18.1790 -18.1558 -18.1281 -18.1218 -18.1087 -18.1024 -18.0979
    -9.4382  -9.3443  -9.2415  -9.2076  -9.1433  -9.1105  -9.0548  -9.0447
    -9.0046  -8.9660  -8.9354  -8.9090  -8.8926  -8.8756  -8.8261  -8.8045
    -8.7727  -8.7636  -8.7244  -8.6992  -8.6432  -8.6087  -8.5817  -8.5748
    -5.2590  -5.2493  -5.2418  -5.2292  -5.2175  -5.2021  -5.1756  -5.1738
    -5.1622  -5.1383  -5.1095  -5.0966  -5.0722  -5.0588  -5.0522  -4.9956
    -4.9863  -4.9773  -4.9761  -4.9680  -4.9571  -4.9447  -4.9367  -4.9288
    -4.3061  -4.0984  -3.8029  -3.7679  -3.5859  -3.5413  -3.2286  -3.0007
    -0.7384  -0.6997  -0.6386  -0.5898  -0.5081  -0.4559  -0.3921  -0.3197
    -0.1115  -0.0779   0.0399   0.1063   0.3849   0.4164   0.4911   0.5283
     0.5619   0.5866   0.6336   0.6606   0.6883   0.7297   0.7981   0.8092
     0.8587   0.9139   0.9670   1.0034   1.0479   1.0985   1.1056   1.1527
     1.1717   1.2026   1.2352   1.2668   1.2896   1.3310   1.3604   1.3765
     1.3855   1.4117   1.4500   1.4693   1.4886   1.5443   1.5505   1.5834
     1.6111   1.6348   1.6423   1.6730   1.6911   1.7295   1.7586   1.7782
     1.8030   1.8377   1.8749   1.9260   1.9499   1.9868   2.0316   2.0739
     2.0907   2.1172   2.2307   2.2892   2.3503   2.4424   2.6872   2.8297

          k =-0.1250 0.1250-0.3750 (132608 PWs)   bands (ev):

   -18.4851 -18.4371 -18.3927 -18.3424 -18.3395 -18.3383 -18.3356 -18.3318
   -18.3248 -18.3164 -18.3142 -18.3109 -18.3089 -18.3076 -18.3008 -18.2997
   -18.2973 -18.2969 -18.2919 -18.2911 -18.2900 -18.2882 -18.2862 -18.2849
   -18.2846 -18.2823 -18.2821 -18.2814 -18.2777 -18.2777 -18.2747 -18.2721
   -18.2695 -18.2693 -18.2623 -18.2086 -18.2027 -18.1966 -18.1891 -18.1827
   -18.1809 -18.1790 -18.1558 -18.1281 -18.1218 -18.1087 -18.1024 -18.0979
    -9.4384  -9.3431  -9.2422  -9.2088  -9.1368  -9.1198  -9.0599  -9.0368
    -8.9967  -8.9713  -8.9379  -8.9124  -8.8941  -8.8624  -8.8270  -8.8118
    -8.7785  -8.7598  -8.7235  -8.6965  -8.6433  -8.6095  -8.5824  -8.5742
    -5.2590  -5.2493  -5.2418  -5.2292  -5.2176  -5.2020  -5.1756  -5.1738
    -5.1621  -5.1383  -5.1095  -5.0966  -5.0722  -5.0588  -5.0522  -4.9956
    -4.9863  -4.9771  -4.9763  -4.9680  -4.9572  -4.9447  -4.9367  -4.9288
    -4.3051  -4.0985  -3.8206  -3.7518  -3.5924  -3.5329  -3.2299  -3.0005
    -0.7440  -0.6906  -0.6389  -0.5948  -0.5164  -0.4593  -0.3864  -0.3213
    -0.1251  -0.0628   0.0690   0.1082   0.3704   0.4058   0.4834   0.5246
     0.5653   0.5983   0.6223   0.6729   0.7069   0.7363   0.7677   0.8004
     0.8680   0.9114   0.9463   0.9995   1.0452   1.0847   1.1245   1.1517
     1.1973   1.2035   1.2370   1.2824   1.3075   1.3167   1.3533   1.3760
     1.3952   1.4210   1.4466   1.4668   1.4811   1.5075   1.5695   1.5941
     1.6162   1.6382   1.6435   1.6716   1.6966   1.7290   1.7497   1.7775
     1.7862   1.8398   1.8681   1.9272   1.9570   1.9906   2.0092   2.0621
     2.0971   2.1506   2.2168   2.2810   2.3390   2.4440   2.7223   2.8184

          k = 0.1250-0.1250-0.3750 (132608 PWs)   bands (ev):

   -18.4851 -18.4371 -18.3927 -18.3424 -18.3395 -18.3383 -18.3356 -18.3318
   -18.3248 -18.3164 -18.3142 -18.3109 -18.3089 -18.3076 -18.3008 -18.2997
   -18.2973 -18.2969 -18.2919 -18.2911 -18.2900 -18.2882 -18.2862 -18.2849
   -18.2846 -18.2823 -18.2821 -18.2814 -18.2777 -18.2777 -18.2747 -18.2721
   -18.2695 -18.2693 -18.2623 -18.2086 -18.2027 -18.1966 -18.1891 -18.1827
   -18.1809 -18.1790 -18.1558 -18.1281 -18.1218 -18.1087 -18.1024 -18.0979
    -9.4386  -9.3422  -9.2442  -9.2036  -9.1469  -9.1191  -9.0630  -9.0266
    -8.9890  -8.9712  -8.9367  -8.9235  -8.8918  -8.8684  -8.8301  -8.8103
    -8.7743  -8.7540  -8.7290  -8.6947  -8.6420  -8.6124  -8.5819  -8.5737
    -5.2590  -5.2494  -5.2418  -5.2293  -5.2176  -5.2020  -5.1756  -5.1739
    -5.1621  -5.1383  -5.1095  -5.0965  -5.0721  -5.0588  -5.0521  -4.9957
    -4.9863  -4.9771  -4.9760  -4.9683  -4.9572  -4.9448  -4.9367  -4.9288
    -4.3034  -4.1023  -3.8169  -3.7498  -3.6020  -3.5284  -3.2259  -3.0031
    -0.7362  -0.6982  -0.6345  -0.5808  -0.5218  -0.4684  -0.3888  -0.3173
    -0.1042  -0.0893   0.0364   0.1024   0.3900   0.4275   0.4870   0.5196
     0.5711   0.5892   0.6551   0.6713   0.6904   0.7227   0.7892   0.8244
     0.8552   0.9097   0.9295   0.9982   1.0526   1.0903   1.1068   1.1365
     1.1736   1.2183   1.2398   1.2828   1.2988   1.3294   1.3570   1.3831
     1.4131   1.4190   1.4474   1.4682   1.4927   1.5146   1.5475   1.5751
     1.6047   1.6333   1.6501   1.6696   1.6934   1.7350   1.7502   1.7810
     1.8031   1.8362   1.8700   1.9077   1.9600   1.9890   2.0328   2.0650
     2.0952   2.1174   2.2239   2.2865   2.3933   2.4137   2.6984   2.8163

          k = 0.3750-0.1250 0.1250 (132608 PWs)   bands (ev):

   -18.4851 -18.4371 -18.3927 -18.3423 -18.3395 -18.3383 -18.3356 -18.3318
   -18.3248 -18.3164 -18.3142 -18.3109 -18.3089 -18.3076 -18.3008 -18.2997
   -18.2973 -18.2969 -18.2919 -18.2911 -18.2900 -18.2882 -18.2862 -18.2849
   -18.2846 -18.2824 -18.2821 -18.2814 -18.2777 -18.2777 -18.2747 -18.2721
   -18.2695 -18.2693 -18.2623 -18.2086 -18.2027 -18.1966 -18.1891 -18.1827
   -18.1809 -18.1790 -18.1558 -18.1281 -18.1218 -18.1087 -18.1024 -18.0979
    -9.4445  -9.3233  -9.2564  -9.2141  -9.1261  -9.1030  -9.0813  -9.0590
    -8.9890  -8.9547  -8.9395  -8.9114  -8.8867  -8.8592  -8.8285  -8.8126
    -8.7935  -8.7665  -8.7199  -8.6809  -8.6518  -8.6071  -8.5867  -8.5712
    -5.2592  -5.2494  -5.2419  -5.2291  -5.2175  -5.2020  -5.1765  -5.1740
    -5.1620  -5.1384  -5.1087  -5.0967  -5.0721  -5.0587  -5.0522  -4.9955
    -4.9859  -4.9774  -4.9759  -4.9658  -4.9564  -4.9458  -4.9367  -4.9309
    -4.3105  -4.0766  -3.8209  -3.7599  -3.5733  -3.5407  -3.2620  -3.0075
    -0.7871  -0.6823  -0.5994  -0.5297  -0.4904  -0.4547  -0.3421  -0.2961
    -0.1299  -0.0450  -0.0340   0.0678   0.3777   0.4608   0.4698   0.5136
     0.5481   0.5809   0.6292   0.6705   0.6932   0.7301   0.7637   0.7903
     0.8568   0.8895   0.9509   1.0145   1.0445   1.0927   1.1161   1.1414
     1.1681   1.2178   1.2314   1.2705   1.2948   1.3241   1.3495   1.3754
     1.3904   1.4138   1.4649   1.4848   1.5122   1.5526   1.5789   1.5951
     1.6122   1.6446   1.6632   1.6921   1.7045   1.7402   1.7614   1.7727
     1.7789   1.8360   1.8543   1.9056   1.9202   1.9597   2.0028   2.0302
     2.0741   2.1532   2.2355   2.2889   2.3275   2.5061   2.6618   2.7886

          k =-0.3750-0.1250-0.1250 (132608 PWs)   bands (ev):

   -18.4851 -18.4371 -18.3927 -18.3423 -18.3395 -18.3383 -18.3356 -18.3318
   -18.3248 -18.3164 -18.3142 -18.3109 -18.3089 -18.3076 -18.3008 -18.2997
   -18.2973 -18.2969 -18.2919 -18.2911 -18.2900 -18.2882 -18.2862 -18.2849
   -18.2846 -18.2824 -18.2821 -18.2814 -18.2777 -18.2777 -18.2747 -18.2721
   -18.2695 -18.2693 -18.2623 -18.2086 -18.2027 -18.1966 -18.1891 -18.1827
   -18.1809 -18.1790 -18.1558 -18.1281 -18.1218 -18.1087 -18.1024 -18.0979
    -9.4448  -9.3214  -9.2619  -9.2039  -9.1411  -9.1063  -9.0736  -9.0514
    -8.9884  -8.9533  -8.9428  -8.9131  -8.8880  -8.8609  -8.8290  -8.8072
    -8.8002  -8.7612  -8.7203  -8.6799  -8.6527  -8.6086  -8.5865  -8.5705
    -5.2591  -5.2494  -5.2419  -5.2291  -5.2175  -5.2021  -5.1765  -5.1741
    -5.1620  -5.1385  -5.1087  -5.0966  -5.0721  -5.0588  -5.0522  -4.9955
    -4.9859  -4.9773  -4.9758  -4.9658  -4.9563  -4.9459  -4.9367  -4.9309
    -4.3123  -4.0689  -3.8299  -3.7633  -3.5756  -3.5265  -3.2692  -3.0055
    -0.7966  -0.6669  -0.5994  -0.5249  -0.4891  -0.4643  -0.3372  -0.3017
    -0.1314  -0.0452  -0.0265   0.0565   0.3808   0.4492   0.4797   0.5115
     0.5611   0.5830   0.6185   0.6607   0.6902   0.7222   0.7642   0.8070
     0.8536   0.8939   0.9801   1.0016   1.0469   1.0739   1.1013   1.1376
     1.1855   1.2211   1.2459   1.2714   1.2947   1.3092   1.3494   1.3751
     1.4101   1.4276   1.4428   1.4825   1.5051   1.5256   1.5713   1.6161
     1.6323   1.6388   1.6572   1.6737   1.7122   1.7403   1.7495   1.7665
     1.7855   1.8371   1.8649   1.9093   1.9328   1.9645   1.9990   2.0473
     2.0749   2.1427   2.2333   2.2963   2.3327   2.4908   2.6481   2.7937

          k = 0.3750 0.1250-0.1250 (132608 PWs)   bands (ev):

   -18.4851 -18.4371 -18.3927 -18.3423 -18.3395 -18.3383 -18.3356 -18.3318
   -18.3248 -18.3164 -18.3142 -18.3109 -18.3089 -18.3076 -18.3008 -18.2997
   -18.2973 -18.2969 -18.2919 -18.2911 -18.2900 -18.2882 -18.2862 -18.2849
   -18.2846 -18.2824 -18.2821 -18.2814 -18.2777 -18.2777 -18.2747 -18.2721
   -18.2695 -18.2693 -18.2623 -18.2086 -18.2027 -18.1966 -18.1891 -18.1827
   -18.1809 -18.1790 -18.1558 -18.1281 -18.1218 -18.1087 -18.1024 -18.0979
    -9.4444  -9.3243  -9.2579  -9.2080  -9.1298  -9.1107  -9.0699  -9.0611
    -8.9929  -8.9529  -8.9344  -8.9138  -8.8880  -8.8657  -8.8308  -8.8037
    -8.7938  -8.7645  -8.7216  -8.6839  -8.6507  -8.6061  -8.5867  -8.5715
    -5.2592  -5.2494  -5.2419  -5.2291  -5.2174  -5.2021  -5.1765  -5.1740
    -5.1621  -5.1384  -5.1087  -5.0967  -5.0721  -5.0587  -5.0522  -4.9955
    -4.9859  -4.9776  -4.9757  -4.9658  -4.9564  -4.9458  -4.9367  -4.9309
    -4.3131  -4.0697  -3.8231  -3.7658  -3.5700  -3.5364  -3.2671  -3.0061
    -0.7933  -0.6850  -0.5885  -0.5232  -0.4784  -0.4667  -0.3244  -0.2946
    -0.1415  -0.0653  -0.0290   0.0445   0.3666   0.4682   0.4927   0.5243
     0.5472   0.5979   0.6285   0.6544   0.6912   0.7220   0.7564   0.8153
     0.8385   0.8969   0.9703   0.9999   1.0469   1.0679   1.1258   1.1458
     1.1906   1.2050   1.2250   1.2792   1.2987   1.3176   1.3418   1.3633
     1.4137   1.4219   1.4606   1.4792   1.5171   1.5377   1.5579   1.6053
     1.6205   1.6370   1.6573   1.6905   1.7068   1.7340   1.7565   1.7769
     1.7951   1.8247   1.8515   1.9017   1.9217   1.9627   2.0053   2.0563
     2.1007   2.1350   2.1983   2.2943   2.3818   2.4726   2.6554   2.7862

          k =-0.3750 0.1250 0.1250 (132608 PWs)   bands (ev):

   -18.4851 -18.4371 -18.3927 -18.3423 -18.3395 -18.3383 -18.3356 -18.3318
   -18.3248 -18.3164 -18.3142 -18.3109 -18.3089 -18.3076 -18.3008 -18.2997
   -18.2973 -18.2969 -18.2919 -18.2911 -18.2900 -18.2882 -18.2862 -18.2849
   -18.2846 -18.2824 -18.2821 -18.2814 -18.2777 -18.2777 -18.2747 -18.2721
   -18.2695 -18.2693 -18.2623 -18.2086 -18.2027 -18.1966 -18.1891 -18.1827
   -18.1809 -18.1790 -18.1558 -18.1281 -18.1218 -18.1087 -18.1024 -18.0979
    -9.4447  -9.3225  -9.2543  -9.2146  -9.1443  -9.0925  -9.0802  -9.0508
    -8.9822  -8.9557  -8.9448  -8.9148  -8.8888  -8.8650  -8.8306  -8.8078
    -8.7893  -8.7643  -8.7218  -8.6815  -8.6508  -8.6085  -8.5867  -8.5707
    -5.2591  -5.2494  -5.2419  -5.2291  -5.2175  -5.2020  -5.1765  -5.1741
    -5.1620  -5.1384  -5.1087  -5.0966  -5.0720  -5.0588  -5.0521  -4.9955
    -4.9859  -4.9772  -4.9759  -4.9659  -4.9565  -4.9459  -4.9367  -4.9309
    -4.3105  -4.0754  -3.8243  -3.7579  -3.5880  -3.5249  -3.2615  -3.0089
    -0.7929  -0.6790  -0.5859  -0.5069  -0.4924  -0.4792  -0.3355  -0.2986
    -0.1344  -0.0651  -0.0345   0.0562   0.3643   0.4577   0.4906   0.5358
     0.5540   0.5897   0.6309   0.6613   0.6937   0.7325   0.7666   0.8054
     0.8522   0.8888   0.9676   1.0065   1.0425   1.0787   1.0926   1.1311
     1.1631   1.2013   1.2453   1.2732   1.3073   1.3256   1.3583   1.3803
     1.4050   1.4375   1.4557   1.4924   1.5022   1.5293   1.5719   1.6008
     1.6143   1.6394   1.6465   1.6881   1.7080   1.7362   1.7559   1.7799
     1.7847   1.8261   1.8630   1.8882   1.9284   1.9662   2.0067   2.0446
     2.1016   2.1476   2.2025   2.2859   2.3799   2.4594   2.6525   2.7924

          k =-0.1250 0.3750 0.1250 (132608 PWs)   bands (ev):

   -18.4851 -18.4371 -18.3927 -18.3424 -18.3395 -18.3383 -18.3356 -18.3318
   -18.3248 -18.3164 -18.3142 -18.3109 -18.3089 -18.3076 -18.3008 -18.2997
   -18.2973 -18.2969 -18.2919 -18.2911 -18.2900 -18.2882 -18.2862 -18.2849
   -18.2846 -18.2823 -18.2821 -18.2814 -18.2777 -18.2777 -18.2747 -18.2721
   -18.2695 -18.2693 -18.2623 -18.2086 -18.2027 -18.1966 -18.1891 -18.1827
   -18.1809 -18.1790 -18.1558 -18.1281 -18.1218 -18.1087 -18.1024 -18.0979
    -9.4418  -9.3219  -9.2721  -9.1938  -9.1509  -9.1303  -9.0513  -9.0191
    -8.9915  -8.9583  -8.9381  -8.9218  -8.8807  -8.8619  -8.8458  -8.8247
    -8.8043  -8.7429  -8.7250  -8.6706  -8.6483  -8.6152  -8.5889  -8.5678
    -5.2590  -5.2494  -5.2416  -5.2290  -5.2174  -5.2017  -5.1757  -5.1741
    -5.1623  -5.1385  -5.1096  -5.0967  -5.0721  -5.0587  -5.0519  -4.9955
    -4.9862  -4.9772  -4.9756  -4.9684  -4.9572  -4.9448  -4.9366  -4.9293
    -4.2948  -4.0933  -3.8110  -3.7630  -3.5923  -3.5376  -3.2507  -3.0190
    -0.7318  -0.6768  -0.6119  -0.5549  -0.4577  -0.3932  -0.3669  -0.2926
    -0.1374  -0.0865  -0.0450   0.0849   0.3833   0.4227   0.4550   0.5035
     0.5508   0.5822   0.6257   0.6537   0.6864   0.7142   0.7424   0.8061
     0.8380   0.8924   0.9413   0.9949   1.0483   1.0817   1.1394   1.1639
     1.2011   1.2262   1.2480   1.2924   1.3102   1.3313   1.3542   1.3857
     1.4153   1.4492   1.4788   1.4968   1.5051   1.5445   1.5742   1.5850
     1.5985   1.6235   1.6419   1.6741   1.6902   1.7187   1.7332   1.7720
     1.7999   1.8325   1.8642   1.9000   1.9297   1.9692   1.9968   2.0108
     2.0727   2.1336   2.1762   2.3002   2.3727   2.4729   2.6691   2.8265

          k =-0.1250-0.3750-0.1250 (132608 PWs)   bands (ev):

   -18.4851 -18.4371 -18.3927 -18.3424 -18.3395 -18.3383 -18.3356 -18.3318
   -18.3248 -18.3164 -18.3142 -18.3109 -18.3089 -18.3076 -18.3008 -18.2997
   -18.2973 -18.2969 -18.2919 -18.2911 -18.2900 -18.2882 -18.2862 -18.2849
   -18.2846 -18.2823 -18.2821 -18.2814 -18.2777 -18.2777 -18.2747 -18.2721
   -18.2695 -18.2693 -18.2623 -18.2086 -18.2027 -18.1966 -18.1891 -18.1827
   -18.1809 -18.1790 -18.1558 -18.1281 -18.1218 -18.1087 -18.1024 -18.0979
    -9.4419  -9.3210  -9.2764  -9.1819  -9.1523  -9.1366  -9.0469  -9.0324
    -8.9910  -8.9558  -8.9351  -8.9159  -8.8775  -8.8680  -8.8357  -8.8317
    -8.8107  -8.7403  -8.7239  -8.6720  -8.6480  -8.6153  -8.5889  -8.5677
    -5.2591  -5.2494  -5.2416  -5.2290  -5.2174  -5.2018  -5.1757  -5.1740
    -5.1624  -5.1386  -5.1096  -5.0967  -5.0721  -5.0587  -5.0520  -4.9954
    -4.9862  -4.9773  -4.9754  -4.9683  -4.9571  -4.9448  -4.9366  -4.9293
    -4.2973  -4.0863  -3.8171  -3.7657  -3.5839  -3.5391  -3.2565  -3.0157
    -0.7376  -0.6726  -0.6269  -0.5594  -0.4434  -0.3923  -0.3549  -0.2793
    -0.1439  -0.0899  -0.0456   0.0866   0.3796   0.4240   0.4496   0.4963
     0.5516   0.5854   0.6276   0.6497   0.6735   0.7237   0.7438   0.8105
     0.8385   0.8758   0.9427   0.9786   1.0790   1.0943   1.1336   1.1537
     1.1854   1.2254   1.2602   1.2973   1.3230   1.3352   1.3579   1.3849
     1.4146   1.4302   1.4516   1.4835   1.5181   1.5291   1.5751   1.6070
     1.6142   1.6369   1.6483   1.6786   1.6899   1.7247   1.7356   1.7574
     1.7896   1.8285   1.8741   1.8945   1.9279   1.9588   2.0081   2.0285
     2.0680   2.1214   2.1729   2.2977   2.3761   2.4672   2.6752   2.8374

          k = 0.1250 0.3750-0.1250 (132608 PWs)   bands (ev):

   -18.4851 -18.4371 -18.3927 -18.3424 -18.3395 -18.3383 -18.3356 -18.3318
   -18.3248 -18.3164 -18.3142 -18.3109 -18.3089 -18.3076 -18.3008 -18.2997
   -18.2973 -18.2969 -18.2919 -18.2911 -18.2900 -18.2882 -18.2862 -18.2849
   -18.2846 -18.2823 -18.2821 -18.2814 -18.2777 -18.2777 -18.2747 -18.2721
   -18.2695 -18.2693 -18.2623 -18.2086 -18.2027 -18.1966 -18.1891 -18.1827
   -18.1809 -18.1790 -18.1558 -18.1281 -18.1218 -18.1087 -18.1024 -18.0979
    -9.4415  -9.3246  -9.2707  -9.1920  -9.1459  -9.1330  -9.0455  -9.0275
    -9.0019  -8.9583  -8.9328  -8.9175  -8.8801  -8.8667  -8.8383  -8.8224
    -8.8074  -8.7456  -8.7228  -8.6765  -8.6461  -8.6126  -8.5888  -8.5687
    -5.2591  -5.2493  -5.2416  -5.2290  -5.2174  -5.2018  -5.1756  -5.1740
    -5.1624  -5.1385  -5.1096  -5.0968  -5.0721  -5.0587  -5.0521  -4.9954
    -4.9862  -4.9774  -4.9757  -4.9681  -4.9571  -4.9447  -4.9366  -4.9293
    -4.2996  -4.0820  -3.8135  -3.7760  -3.5766  -3.5382  -3.2613  -3.0148
    -0.7385  -0.6713  -0.6160  -0.5564  -0.4554  -0.3978  -0.3398  -0.3045
    -0.1453  -0.0779  -0.0361   0.0877   0.3573   0.4284   0.4638   0.4900
     0.5549   0.5846   0.6093   0.6408   0.6856   0.7260   0.7494   0.7942
     0.8446   0.8888   0.9507   0.9981   1.0497   1.1022   1.1433   1.1803
     1.1955   1.2207   1.2450   1.2817   1.3099   1.3201   1.3617   1.3755
     1.3998   1.4486   1.4723   1.4832   1.5104   1.5385   1.5736   1.5926
     1.6157   1.6368   1.6635   1.6691   1.6873   1.7126   1.7368   1.7781
     1.7983   1.8245   1.8715   1.8915   1.9098   1.9688   1.9947   2.0334
     2.0675   2.1286   2.1930   2.2885   2.3848   2.4602   2.6845   2.8197

          k = 0.1250-0.3750 0.1250 (132608 PWs)   bands (ev):

   -18.4851 -18.4371 -18.3927 -18.3424 -18.3395 -18.3383 -18.3356 -18.3318
   -18.3248 -18.3164 -18.3142 -18.3109 -18.3089 -18.3076 -18.3008 -18.2997
   -18.2973 -18.2969 -18.2919 -18.2911 -18.2900 -18.2882 -18.2862 -18.2849
   -18.2846 -18.2823 -18.2821 -18.2814 -18.2777 -18.2777 -18.2747 -18.2721
   -18.2695 -18.2693 -18.2623 -18.2086 -18.2027 -18.1966 -18.1891 -18.1827
   -18.1809 -18.1790 -18.1558 -18.1281 -18.1218 -18.1087 -18.1024 -18.0979
    -9.4416  -9.3241  -9.2688  -9.2014  -9.1400  -9.1257  -9.0573  -9.0299
    -8.9967  -8.9528  -8.9360  -8.9124  -8.8854  -8.8563  -8.8426  -8.8273
    -8.8098  -8.7439  -8.7225  -8.6763  -8.6453  -8.6132  -8.5894  -8.5683
    -5.2591  -5.2493  -5.2416  -5.2290  -5.2175  -5.2017  -5.1757  -5.1740
    -5.1623  -5.1385  -5.1097  -5.0968  -5.0721  -5.0586  -5.0521  -4.9953
    -4.9863  -4.9772  -4.9759  -4.9682  -4.9572  -4.9446  -4.9366  -4.9293
    -4.2968  -4.0890  -3.8076  -3.7721  -3.5859  -3.5393  -3.2543  -3.0166
    -0.7315  -0.6750  -0.6213  -0.5735  -0.4457  -0.3935  -0.3496  -0.2933
    -0.1392  -0.0809  -0.0344   0.0914   0.3578   0.4188   0.4771   0.4958
     0.5518   0.5746   0.6189   0.6476   0.6764   0.7245   0.7645   0.7890
     0.8281   0.8655   0.9621   1.0005   1.0733   1.0929   1.1238   1.1681
     1.1895   1.2243   1.2573   1.2845   1.3138   1.3333   1.3662   1.3807
     1.4122   1.4286   1.4450   1.4937   1.5139   1.5461   1.5775   1.6053
     1.6201   1.6297   1.6521   1.6844   1.6896   1.7162   1.7321   1.7643
     1.7959   1.8280   1.8743   1.8931   1.9269   1.9537   1.9900   2.0177
     2.0660   2.1283   2.2104   2.2732   2.3568   2.4741   2.7097   2.8206

          k =-0.1250-0.3750 0.3750 (132616 PWs)   bands (ev):

   -18.4851 -18.4371 -18.3927 -18.3424 -18.3395 -18.3383 -18.3356 -18.3318
   -18.3248 -18.3164 -18.3142 -18.3109 -18.3089 -18.3076 -18.3008 -18.2997
   -18.2973 -18.2969 -18.2919 -18.2911 -18.2900 -18.2882 -18.2862 -18.2849
   -18.2846 -18.2823 -18.2821 -18.2814 -18.2777 -18.2777 -18.2747 -18.2721
   -18.2695 -18.2693 -18.2623 -18.2086 -18.2027 -18.1966 -18.1891 -18.1827
   -18.1809 -18.1790 -18.1558 -18.1281 -18.1218 -18.1087 -18.1024 -18.0979
    -9.4297  -9.3342  -9.2528  -9.1995  -9.1689  -9.1149  -9.0802  -9.0480
    -8.9976  -8.9564  -8.9268  -8.8979  -8.8831  -8.8727  -8.8255  -8.8034
    -8.7803  -8.7492  -8.7289  -8.6980  -8.6415  -8.6109  -8.5887  -8.5777
    -5.2590  -5.2493  -5.2416  -5.2291  -5.2173  -5.2018  -5.1758  -5.1739
    -5.1625  -5.1383  -5.1095  -5.0967  -5.0722  -5.0586  -5.0519  -4.9958
    -4.9864  -4.9774  -4.9763  -4.9678  -4.9575  -4.9446  -4.9363  -4.9293
    -4.1816  -3.9828  -3.9414  -3.7731  -3.6321  -3.4539  -3.3989  -3.1944
    -0.6192  -0.6019  -0.5437  -0.5072  -0.3401  -0.2398  -0.2043  -0.1048
    -0.0450   0.0021   0.0963   0.1464   0.2894   0.3721   0.4324   0.4794
     0.5273   0.5466   0.5670   0.5986   0.6255   0.6528   0.7107   0.7626
     0.8135   0.8470   0.9089   0.9367   0.9976   1.0207   1.0597   1.0957
     1.1251   1.1641   1.1949   1.2144   1.2548   1.2986   1.3215   1.3743
     1.3957   1.4235   1.4662   1.5012   1.5085   1.5469   1.5944   1.6199
     1.6463   1.6561   1.6765   1.6855   1.7057   1.7175   1.7518   1.7861
     1.8206   1.8443   1.8755   1.9028   1.9156   1.9370   1.9826   2.0123
     2.0558   2.0726   2.1269   2.1579   2.2875   2.3724   2.5005   2.6073

          k =-0.1250 0.3750-0.3750 (132616 PWs)   bands (ev):

   -18.4851 -18.4371 -18.3927 -18.3424 -18.3395 -18.3383 -18.3356 -18.3318
   -18.3248 -18.3164 -18.3142 -18.3109 -18.3089 -18.3076 -18.3008 -18.2997
   -18.2973 -18.2969 -18.2919 -18.2911 -18.2900 -18.2882 -18.2862 -18.2849
   -18.2846 -18.2823 -18.2821 -18.2814 -18.2777 -18.2777 -18.2747 -18.2721
   -18.2695 -18.2693 -18.2623 -18.2086 -18.2027 -18.1966 -18.1891 -18.1827
   -18.1809 -18.1790 -18.1558 -18.1281 -18.1218 -18.1087 -18.1024 -18.0979
    -9.4300  -9.3329  -9.2527  -9.2045  -9.1641  -9.1133  -9.0856  -9.0509
    -8.9906  -8.9513  -8.9339  -8.8975  -8.8857  -8.8612  -8.8312  -8.8090
    -8.7823  -8.7462  -8.7284  -8.6962  -8.6415  -8.6111  -8.5896  -8.5772
    -5.2590  -5.2493  -5.2416  -5.2291  -5.2174  -5.2016  -5.1758  -5.1739
    -5.1624  -5.1383  -5.1095  -5.0967  -5.0721  -5.0586  -5.0519  -4.9957
    -4.9865  -4.9773  -4.9764  -4.9679  -4.9576  -4.9446  -4.9363  -4.9293
    -4.1790  -3.9848  -3.9449  -3.7730  -3.6317  -3.4504  -3.3987  -3.1955
    -0.6226  -0.6078  -0.5549  -0.4886  -0.3391  -0.2554  -0.1992  -0.0921
    -0.0470   0.0106   0.0894   0.1571   0.2875   0.3725   0.4119   0.4845
     0.5280   0.5494   0.5757   0.5987   0.6356   0.6711   0.6984   0.7475
     0.8014   0.8335   0.9066   0.9487   0.9860   1.0161   1.0607   1.0999
     1.1314   1.1636   1.1935   1.2209   1.2656   1.3043   1.3189   1.3656
     1.3941   1.4356   1.4686   1.5060   1.5363   1.5479   1.6039   1.6169
     1.6279   1.6566   1.6616   1.6822   1.7019   1.7135   1.7554   1.7905
     1.7963   1.8412   1.8752   1.8926   1.9301   1.9487   1.9826   1.9958
     2.0484   2.0749   2.1448   2.1619   2.2544   2.3753   2.5233   2.6150

          k = 0.1250-0.3750-0.3750 (132616 PWs)   bands (ev):

   -18.4851 -18.4371 -18.3927 -18.3424 -18.3395 -18.3383 -18.3356 -18.3318
   -18.3248 -18.3164 -18.3142 -18.3109 -18.3089 -18.3076 -18.3008 -18.2997
   -18.2973 -18.2969 -18.2919 -18.2911 -18.2900 -18.2882 -18.2862 -18.2849
   -18.2846 -18.2823 -18.2821 -18.2814 -18.2777 -18.2777 -18.2747 -18.2721
   -18.2695 -18.2693 -18.2623 -18.2086 -18.2027 -18.1966 -18.1891 -18.1827
   -18.1809 -18.1790 -18.1558 -18.1281 -18.1218 -18.1087 -18.1024 -18.0979
    -9.4303  -9.3310  -9.2565  -9.1974  -9.1631  -9.1367  -9.0695  -9.0447
    -8.9855  -8.9561  -8.9351  -8.9052  -8.8836  -8.8638  -8.8293  -8.8113
    -8.7772  -8.7457  -8.7304  -8.6939  -8.6404  -8.6150  -8.5890  -8.5764
    -5.2589  -5.2494  -5.2416  -5.2291  -5.2174  -5.2017  -5.1758  -5.1740
    -5.1624  -5.1383  -5.1095  -5.0966  -5.0721  -5.0586  -5.0517  -4.9958
    -4.9865  -4.9772  -4.9762  -4.9681  -4.9575  -4.9447  -4.9363  -4.9293
    -4.1719  -4.0184  -3.9193  -3.7639  -3.6402  -3.4716  -3.3695  -3.2034
    -0.6170  -0.5973  -0.5424  -0.4979  -0.3752  -0.2284  -0.1942  -0.1090
    -0.0640   0.0194   0.0788   0.1223   0.3234   0.4097   0.4286   0.4609
     0.5243   0.5438   0.5844   0.6037   0.6466   0.6646   0.6975   0.7245
     0.8078   0.8711   0.8850   0.9465   0.9862   1.0237   1.0434   1.0787
     1.1297   1.1678   1.1980   1.2284   1.2764   1.2979   1.3255   1.3778
     1.3938   1.4319   1.4746   1.4988   1.5180   1.5693   1.5923   1.6034
     1.6177   1.6291   1.6568   1.6868   1.7050   1.7480   1.7591   1.7919
     1.8107   1.8386   1.8557   1.8851   1.9185   1.9515   1.9879   2.0242
     2.0487   2.0766   2.1147   2.1766   2.2719   2.4141   2.4679   2.6093

          k = 0.3750 0.1250-0.3750 (132616 PWs)   bands (ev):

   -18.4851 -18.4371 -18.3927 -18.3423 -18.3395 -18.3383 -18.3356 -18.3318
   -18.3248 -18.3164 -18.3142 -18.3109 -18.3089 -18.3076 -18.3008 -18.2997
   -18.2973 -18.2969 -18.2919 -18.2911 -18.2900 -18.2882 -18.2862 -18.2849
   -18.2846 -18.2824 -18.2821 -18.2814 -18.2777 -18.2777 -18.2747 -18.2721
   -18.2695 -18.2693 -18.2623 -18.2086 -18.2027 -18.1966 -18.1891 -18.1827
   -18.1809 -18.1790 -18.1558 -18.1281 -18.1218 -18.1087 -18.1024 -18.0979
    -9.4323  -9.3320  -9.2455  -9.2152  -9.1427  -9.1133  -9.0799  -9.0683
    -9.0081  -8.9601  -8.9282  -8.9121  -8.8740  -8.8546  -8.8123  -8.7934
    -8.7775  -8.7637  -8.7359  -8.6987  -8.6437  -8.6103  -8.5884  -8.5771
    -5.2590  -5.2494  -5.2418  -5.2291  -5.2175  -5.2021  -5.1766  -5.1739
    -5.1621  -5.1383  -5.1086  -5.0968  -5.0720  -5.0587  -5.0523  -4.9956
    -4.9860  -4.9772  -4.9759  -4.9656  -4.9566  -4.9460  -4.9368  -4.9308
    -4.1905  -3.9954  -3.9385  -3.7452  -3.6407  -3.4381  -3.4068  -3.1930
    -0.7129  -0.6558  -0.5304  -0.4545  -0.3005  -0.2555  -0.1731  -0.1222
    -0.0329   0.0202   0.0516   0.1266   0.3504   0.3959   0.4427   0.4637
     0.5282   0.5483   0.5895   0.6180   0.6443   0.6512   0.6796   0.7350
     0.8111   0.8485   0.9166   0.9544   0.9876   1.0158   1.0299   1.1199
     1.1545   1.1790   1.1993   1.2282   1.2490   1.2857   1.3076   1.3464
     1.3730   1.3891   1.4354   1.4649   1.5020   1.5596   1.5774   1.6019
     1.6542   1.6743   1.6798   1.7122   1.7355   1.7477   1.7770   1.7837
     1.8159   1.8392   1.8786   1.8921   1.9330   1.9607   1.9832   1.9922
     2.0477   2.0931   2.1285   2.2249   2.3121   2.4078   2.4417   2.5371

          k =-0.3750-0.1250-0.3750 (132616 PWs)   bands (ev):

   -18.4851 -18.4371 -18.3927 -18.3423 -18.3395 -18.3383 -18.3356 -18.3318
   -18.3248 -18.3164 -18.3142 -18.3109 -18.3089 -18.3076 -18.3008 -18.2997
   -18.2973 -18.2969 -18.2919 -18.2911 -18.2900 -18.2882 -18.2862 -18.2849
   -18.2846 -18.2824 -18.2821 -18.2814 -18.2777 -18.2777 -18.2747 -18.2721
   -18.2695 -18.2693 -18.2623 -18.2086 -18.2027 -18.1966 -18.1891 -18.1827
   -18.1809 -18.1790 -18.1558 -18.1281 -18.1218 -18.1087 -18.1024 -18.0979
    -9.4329  -9.3291  -9.2496  -9.2129  -9.1428  -9.1218  -9.0772  -9.0611
    -9.0064  -8.9609  -8.9254  -8.9190  -8.8791  -8.8418  -8.8095  -8.8034
    -8.7860  -8.7560  -8.7353  -8.6958  -8.6428  -8.6144  -8.5882  -8.5757
    -5.2590  -5.2494  -5.2419  -5.2291  -5.2175  -5.2021  -5.1766  -5.1740
    -5.1621  -5.1384  -5.1086  -5.0967  -5.0720  -5.0587  -5.0522  -4.9957
    -4.9860  -4.9769  -4.9760  -4.9657  -4.9565  -4.9462  -4.9368  -4.9308
    -4.1885  -3.9960  -3.9382  -3.7621  -3.6191  -3.4503  -3.4014  -3.1924
    -0.7168  -0.6439  -0.5333  -0.4585  -0.3440  -0.2269  -0.1712  -0.1004
    -0.0811   0.0141   0.1151   0.1702   0.3166   0.3648   0.4448   0.4882
     0.4994   0.5401   0.5618   0.6131   0.6470   0.6668   0.6951   0.7541
     0.8055   0.8564   0.9004   0.9430   0.9580   1.0399   1.0559   1.1090
     1.1476   1.1820   1.2148   1.2346   1.2452   1.2707   1.3120   1.3494
     1.3680   1.4235   1.4382   1.4580   1.4900   1.5473   1.5758   1.6048
     1.6474   1.6704   1.6924   1.7029   1.7377   1.7571   1.7764   1.7960
     1.8041   1.8355   1.8671   1.8998   1.9221   1.9650   1.9715   2.0080
     2.0353   2.1178   2.1585   2.1986   2.2950   2.3974   2.4642   2.5292

          k = 0.3750-0.1250 0.3750 (132616 PWs)   bands (ev):

   -18.4851 -18.4371 -18.3927 -18.3423 -18.3395 -18.3383 -18.3356 -18.3318
   -18.3248 -18.3164 -18.3142 -18.3109 -18.3089 -18.3076 -18.3008 -18.2997
   -18.2973 -18.2969 -18.2919 -18.2911 -18.2900 -18.2882 -18.2862 -18.2849
   -18.2846 -18.2824 -18.2821 -18.2814 -18.2777 -18.2777 -18.2747 -18.2721
   -18.2695 -18.2693 -18.2623 -18.2086 -18.2027 -18.1966 -18.1891 -18.1827
   -18.1809 -18.1790 -18.1558 -18.1281 -18.1218 -18.1087 -18.1024 -18.0979
    -9.4326  -9.3302  -9.2485  -9.2137  -9.1389  -9.1222  -9.0761  -9.0692
    -9.0004  -8.9651  -8.9305  -8.9128  -8.8743  -8.8404  -8.8152  -8.8036
    -8.7840  -8.7588  -8.7342  -8.6957  -8.6437  -8.6113  -8.5887  -8.5767
    -5.2590  -5.2493  -5.2418  -5.2291  -5.2175  -5.2020  -5.1767  -5.1739
    -5.1620  -5.1383  -5.1086  -5.0967  -5.0720  -5.0586  -5.0523  -4.9956
    -4.9861  -4.9771  -4.9761  -4.9657  -4.9566  -4.9460  -4.9368  -4.9308
    -4.1878  -3.9946  -3.9458  -3.7529  -3.6242  -3.4459  -3.4037  -3.1931
    -0.7124  -0.6520  -0.5340  -0.4552  -0.3435  -0.2277  -0.1693  -0.1150
    -0.0731   0.0252   0.1117   0.1684   0.3283   0.3608   0.4532   0.4667
     0.4922   0.5262   0.5856   0.6361   0.6431   0.6680   0.7028   0.7489
     0.7611   0.8569   0.9186   0.9442   0.9751   1.0421   1.0626   1.0979
     1.1320   1.1785   1.2050   1.2265   1.2629   1.2878   1.3025   1.3561
     1.3692   1.4079   1.4363   1.4629   1.4971   1.5571   1.5873   1.6037
     1.6357   1.6818   1.6885   1.7143   1.7319   1.7571   1.7801   1.7918
     1.7949   1.8333   1.8576   1.8951   1.9269   1.9450   1.9747   2.0075
     2.0457   2.1129   2.1436   2.2011   2.3005   2.3865   2.5007   2.5241

          k =-0.3750 0.1250 0.3750 (132616 PWs)   bands (ev):

   -18.4851 -18.4371 -18.3927 -18.3423 -18.3395 -18.3383 -18.3356 -18.3318
   -18.3248 -18.3164 -18.3142 -18.3109 -18.3089 -18.3076 -18.3008 -18.2997
   -18.2973 -18.2969 -18.2919 -18.2911 -18.2900 -18.2882 -18.2862 -18.2849
   -18.2846 -18.2824 -18.2821 -18.2814 -18.2777 -18.2777 -18.2747 -18.2721
   -18.2695 -18.2693 -18.2623 -18.2086 -18.2027 -18.1966 -18.1891 -18.1827
   -18.1809 -18.1790 -18.1558 -18.1281 -18.1218 -18.1087 -18.1024 -18.0979
    -9.4329  -9.3294  -9.2434  -9.2181  -9.1545  -9.1115  -9.0849  -9.0517
    -8.9976  -8.9676  -8.9287  -8.9194  -8.8754  -8.8494  -8.8135  -8.7995
    -8.7769  -8.7604  -8.7357  -8.6954  -8.6432  -8.6132  -8.5886  -8.5761
    -5.2590  -5.2494  -5.2418  -5.2291  -5.2175  -5.2021  -5.1767  -5.1740
    -5.1621  -5.1383  -5.1085  -5.0967  -5.0720  -5.0587  -5.0522  -4.9957
    -4.9861  -4.9769  -4.9761  -4.9657  -4.9567  -4.9461  -4.9368  -4.9307
    -4.1872  -3.9982  -3.9395  -3.7587  -3.6281  -3.4352  -3.4038  -3.1974
    -0.7112  -0.6519  -0.5240  -0.4585  -0.3231  -0.2499  -0.1843  -0.1243
    -0.0110   0.0176   0.0546   0.1138   0.3552   0.3906   0.4454   0.4637
     0.5424   0.5573   0.5812   0.6199   0.6335   0.6743   0.6791   0.7544
     0.8167   0.8426   0.8883   0.9441   0.9767   1.0086   1.0635   1.0957
     1.1330   1.1826   1.2004   1.2266   1.2626   1.2780   1.3124   1.3576
     1.3941   1.4186   1.4409   1.4598   1.4909   1.5515   1.5712   1.6055
     1.6381   1.6665   1.6925   1.7218   1.7308   1.7445   1.7668   1.7946
     1.8134   1.8343   1.8562   1.8917   1.9276   1.9610   1.9771   2.0114
     2.0408   2.0994   2.1419   2.2119   2.3354   2.3896   2.4398   2.5375

          k = 0.3750-0.3750 0.1250 (132616 PWs)   bands (ev):

   -18.4851 -18.4371 -18.3927 -18.3423 -18.3395 -18.3383 -18.3356 -18.3318
   -18.3248 -18.3164 -18.3142 -18.3109 -18.3089 -18.3076 -18.3008 -18.2997
   -18.2973 -18.2969 -18.2919 -18.2911 -18.2900 -18.2882 -18.2862 -18.2849
   -18.2846 -18.2823 -18.2821 -18.2814 -18.2777 -18.2777 -18.2747 -18.2721
   -18.2695 -18.2693 -18.2623 -18.2086 -18.2027 -18.1966 -18.1891 -18.1827
   -18.1809 -18.1790 -18.1558 -18.1281 -18.1218 -18.1087 -18.1024 -18.0979
    -9.4356  -9.3147  -9.2496  -9.2294  -9.1524  -9.1234  -9.0829  -9.0491
    -8.9844  -8.9596  -8.9293  -8.8994  -8.8776  -8.8494  -8.8378  -8.8110
    -8.7984  -8.7488  -8.7264  -8.6819  -8.6460  -8.6147  -8.5936  -8.5717
    -5.2591  -5.2493  -5.2416  -5.2290  -5.2174  -5.2018  -5.1764  -5.1739
    -5.1618  -5.1385  -5.1088  -5.0969  -5.0722  -5.0588  -5.0521  -4.9953
    -4.9860  -4.9771  -4.9757  -4.9660  -4.9567  -4.9461  -4.9366  -4.9311
    -4.1821  -4.0219  -3.8685  -3.7300  -3.6750  -3.5174  -3.3779  -3.2027
    -0.6950  -0.5719  -0.4887  -0.4298  -0.2763  -0.2362  -0.1960  -0.1126
    -0.0544  -0.0065   0.0538   0.1416   0.3379   0.3727   0.4104   0.4529
     0.4900   0.5173   0.5706   0.5946   0.6260   0.6615   0.6986   0.7372
     0.8192   0.8274   0.8740   0.9370   1.0061   1.0315   1.0447   1.1259
     1.1328   1.1623   1.2097   1.2211   1.2651   1.2847   1.3420   1.3673
     1.3790   1.3968   1.4522   1.4768   1.5351   1.5964   1.6039   1.6238
     1.6343   1.6589   1.6853   1.7060   1.7264   1.7541   1.7702   1.7830
     1.8108   1.8335   1.8600   1.8735   1.8978   1.9383   1.9674   1.9755
     2.0333   2.0913   2.1347   2.1852   2.2591   2.3818   2.4926   2.5650

          k =-0.3750-0.3750-0.1250 (132616 PWs)   bands (ev):

   -18.4851 -18.4371 -18.3927 -18.3423 -18.3395 -18.3383 -18.3356 -18.3318
   -18.3248 -18.3164 -18.3142 -18.3109 -18.3089 -18.3076 -18.3008 -18.2997
   -18.2973 -18.2969 -18.2919 -18.2911 -18.2900 -18.2882 -18.2862 -18.2849
   -18.2846 -18.2823 -18.2821 -18.2814 -18.2777 -18.2777 -18.2747 -18.2721
   -18.2695 -18.2693 -18.2623 -18.2086 -18.2027 -18.1966 -18.1891 -18.1827
   -18.1809 -18.1790 -18.1558 -18.1281 -18.1218 -18.1087 -18.1024 -18.0979
    -9.4360  -9.3116  -9.2629  -9.2055  -9.1725  -9.1284  -9.0668  -9.0485
    -8.9885  -8.9567  -8.9333  -8.9022  -8.8708  -8.8574  -8.8349  -8.8080
    -8.8028  -8.7459  -8.7260  -8.6810  -8.6465  -8.6168  -8.5931  -8.5711
    -5.2591  -5.2494  -5.2416  -5.2290  -5.2174  -5.2019  -5.1763  -5.1739
    -5.1619  -5.1386  -5.1088  -5.0969  -5.0723  -5.0588  -5.0520  -4.9954
    -4.9860  -4.9770  -4.9755  -4.9660  -4.9565  -4.9463  -4.9366  -4.9312
    -4.1897  -3.9757  -3.9214  -3.7204  -3.6797  -3.4762  -3.4164  -3.1961
    -0.6998  -0.5749  -0.4766  -0.4270  -0.2859  -0.2408  -0.1599  -0.1230
    -0.0497   0.0013   0.0230   0.1298   0.3222   0.3582   0.4242   0.4707
     0.5026   0.5386   0.5582   0.5855   0.6343   0.6555   0.7037   0.7228
     0.7863   0.8675   0.9013   0.9319   0.9794   1.0152   1.0504   1.1171
     1.1369   1.1784   1.2014   1.2485   1.2560   1.2916   1.3263   1.3640
     1.3796   1.4164   1.4503   1.4911   1.5134   1.5596   1.5929   1.6250
     1.6484   1.6715   1.6769   1.7108   1.7359   1.7528   1.7717   1.7857
     1.8116   1.8349   1.8422   1.8798   1.9028   1.9451   1.9766   2.0098
     2.0174   2.0802   2.1259   2.1850   2.2869   2.3437   2.4804   2.5800

          k = 0.3750 0.3750-0.1250 (132616 PWs)   bands (ev):

   -18.4851 -18.4371 -18.3927 -18.3423 -18.3395 -18.3383 -18.3356 -18.3318
   -18.3248 -18.3164 -18.3142 -18.3109 -18.3089 -18.3076 -18.3008 -18.2997
   -18.2973 -18.2969 -18.2919 -18.2911 -18.2900 -18.2882 -18.2862 -18.2849
   -18.2846 -18.2823 -18.2821 -18.2814 -18.2777 -18.2777 -18.2747 -18.2721
   -18.2695 -18.2693 -18.2623 -18.2086 -18.2027 -18.1966 -18.1891 -18.1827
   -18.1809 -18.1790 -18.1558 -18.1281 -18.1218 -18.1087 -18.1024 -18.0979
    -9.4355  -9.3154  -9.2576  -9.2126  -9.1617  -9.1314  -9.0694  -9.0480
    -8.9908  -8.9594  -8.9288  -8.9014  -8.8771  -8.8533  -8.8379  -8.8076
    -8.7924  -8.7511  -8.7275  -8.6823  -8.6466  -8.6140  -8.5931  -8.5720
    -5.2591  -5.2494  -5.2416  -5.2290  -5.2174  -5.2019  -5.1764  -5.1739
    -5.1619  -5.1385  -5.1088  -5.0970  -5.0723  -5.0588  -5.0521  -4.9954
    -4.9859  -4.9772  -4.9755  -4.9660  -4.9566  -4.9461  -4.9366  -4.9311
    -4.1912  -3.9768  -3.9190  -3.7127  -3.6844  -3.4769  -3.4194  -3.1954
    -0.7010  -0.5707  -0.4666  -0.4304  -0.2912  -0.2340  -0.1694  -0.1243
    -0.0546  -0.0133   0.0378   0.1269   0.3234   0.3666   0.4015   0.4756
     0.5227   0.5452   0.5622   0.5890   0.6149   0.6465   0.6989   0.7268
     0.8076   0.8685   0.8916   0.9195   0.9826   1.0122   1.0888   1.1172
     1.1513   1.1802   1.1907   1.2221   1.2552   1.2837   1.3196   1.3596
     1.3866   1.4109   1.4509   1.4845   1.5246   1.5719   1.6048   1.6232
     1.6355   1.6457   1.7033   1.7112   1.7382   1.7476   1.7734   1.7868
     1.7981   1.8251   1.8433   1.8810   1.8992   1.9436   1.9662   2.0129
     2.0197   2.0911   2.1332   2.2198   2.2750   2.3501   2.4787   2.5596

          k =-0.3750 0.3750 0.1250 (132616 PWs)   bands (ev):

   -18.4851 -18.4371 -18.3927 -18.3423 -18.3395 -18.3383 -18.3356 -18.3318
   -18.3248 -18.3164 -18.3142 -18.3109 -18.3089 -18.3076 -18.3008 -18.2997
   -18.2973 -18.2969 -18.2919 -18.2911 -18.2900 -18.2882 -18.2862 -18.2849
   -18.2846 -18.2823 -18.2821 -18.2814 -18.2777 -18.2777 -18.2747 -18.2721
   -18.2695 -18.2693 -18.2623 -18.2086 -18.2027 -18.1966 -18.1891 -18.1827
   -18.1809 -18.1790 -18.1558 -18.1281 -18.1218 -18.1087 -18.1024 -18.0979
    -9.4359  -9.3129  -9.2508  -9.2252  -9.1685  -9.1220  -9.0737  -9.0393
    -8.9845  -8.9628  -8.9334  -8.9055  -8.8727  -8.8567  -8.8386  -8.8092
    -8.7897  -8.7510  -8.7274  -8.6793  -8.6468  -8.6167  -8.5932  -8.5712
    -5.2590  -5.2494  -5.2416  -5.2290  -5.2174  -5.2019  -5.1764  -5.1740
    -5.1618  -5.1385  -5.1088  -5.0969  -5.0722  -5.0588  -5.0520  -4.9954
    -4.9860  -4.9768  -4.9757  -4.9661  -4.9567  -4.9462  -4.9366  -4.9311
    -4.1812  -4.0221  -3.8669  -3.7471  -3.6610  -3.5163  -3.3747  -3.2063
    -0.6983  -0.5709  -0.4616  -0.4184  -0.2922  -0.2369  -0.2213  -0.1399
    -0.0428  -0.0008   0.0573   0.1244   0.3354   0.3799   0.4237   0.4448
     0.5110   0.5382   0.5644   0.5924   0.6372   0.6654   0.6892   0.7203
     0.8107   0.8650   0.8759   0.9289   0.9822   1.0297   1.0576   1.0913
     1.1462   1.1600   1.2004   1.2422   1.2613   1.2950   1.3282   1.3630
     1.3835   1.4279   1.4691   1.5016   1.5078   1.5561   1.5982   1.6112
     1.6234   1.6596   1.6809   1.7077   1.7280   1.7553   1.7736   1.7911
     1.8126   1.8221   1.8622   1.8792   1.9310   1.9429   1.9564   1.9678
     2.0394   2.0884   2.1616   2.2004   2.2479   2.3487   2.4738   2.5760

          k =-0.3750-0.3750 0.3750 (132612 PWs)   bands (ev):

   -18.4851 -18.4371 -18.3927 -18.3423 -18.3395 -18.3383 -18.3356 -18.3318
   -18.3248 -18.3164 -18.3142 -18.3109 -18.3089 -18.3076 -18.3008 -18.2997
   -18.2973 -18.2969 -18.2919 -18.2911 -18.2900 -18.2882 -18.2862 -18.2849
   -18.2846 -18.2824 -18.2821 -18.2814 -18.2777 -18.2777 -18.2747 -18.2721
   -18.2695 -18.2693 -18.2623 -18.2086 -18.2027 -18.1966 -18.1891 -18.1827
   -18.1809 -18.1790 -18.1558 -18.1281 -18.1218 -18.1087 -18.1024 -18.0979
    -9.4256  -9.3237  -9.2373  -9.2069  -9.1669  -9.1404  -9.1104  -9.0698
    -8.9883  -8.9541  -8.9138  -8.9018  -8.8659  -8.8499  -8.8177  -8.7930
    -8.7825  -8.7515  -8.7381  -8.7011  -8.6427  -8.6122  -8.5938  -8.5796
    -5.2590  -5.2494  -5.2416  -5.2291  -5.2174  -5.2020  -5.1765  -5.1740
    -5.1621  -5.1382  -5.1087  -5.0969  -5.0722  -5.0585  -5.0519  -4.9957
    -4.9860  -4.9772  -4.9758  -4.9657  -4.9569  -4.9460  -4.9363  -4.9310
    -4.0717  -3.8909  -3.8303  -3.8049  -3.6425  -3.5871  -3.5696  -3.3664
    -0.4658  -0.3489  -0.3162  -0.2920  -0.2110  -0.1668  -0.1148  -0.0810
    -0.0017   0.0082   0.1078   0.1872   0.2853   0.3310   0.3832   0.4106
     0.4608   0.4805   0.5316   0.5529   0.5934   0.6097   0.6421   0.6606
     0.8230   0.8580   0.8857   0.9423   0.9879   0.9992   1.0219   1.0714
     1.0789   1.1080   1.1315   1.1637   1.2148   1.2457   1.2624   1.2906
     1.3528   1.3776   1.4359   1.4733   1.5096   1.5451   1.6048   1.6466
     1.6777   1.6960   1.7195   1.7368   1.7460   1.7579   1.7818   1.7988
     1.8243   1.8462   1.8659   1.8902   1.9057   1.9261   1.9534   1.9726
     1.9969   2.0303   2.0797   2.1108   2.1832   2.2063   2.2843   2.3400

          k =-0.3750 0.3750-0.3750 (132612 PWs)   bands (ev):

   -18.4851 -18.4371 -18.3927 -18.3423 -18.3395 -18.3383 -18.3356 -18.3318
   -18.3248 -18.3164 -18.3142 -18.3109 -18.3089 -18.3076 -18.3008 -18.2997
   -18.2973 -18.2969 -18.2919 -18.2911 -18.2900 -18.2882 -18.2862 -18.2849
   -18.2846 -18.2824 -18.2821 -18.2814 -18.2777 -18.2777 -18.2747 -18.2721
   -18.2695 -18.2693 -18.2623 -18.2086 -18.2027 -18.1966 -18.1891 -18.1827
   -18.1809 -18.1790 -18.1558 -18.1281 -18.1218 -18.1087 -18.1024 -18.0979
    -9.4259  -9.3220  -9.2367  -9.2138  -9.1591  -9.1375  -9.1186  -9.0711
    -8.9813  -8.9542  -8.9198  -8.9000  -8.8662  -8.8353  -8.8208  -8.8085
    -8.7847  -8.7464  -8.7371  -8.6993  -8.6427  -8.6125  -8.5944  -8.5792
    -5.2590  -5.2494  -5.2416  -5.2291  -5.2175  -5.2018  -5.1766  -5.1740
    -5.1620  -5.1382  -5.1087  -5.0969  -5.0722  -5.0585  -5.0519  -4.9956
    -4.9861  -4.9772  -4.9759  -4.9657  -4.9570  -4.9460  -4.9363  -4.9310
    -4.0633  -3.9111  -3.8513  -3.7604  -3.6664  -3.5992  -3.5404  -3.3711
    -0.4644  -0.3593  -0.3216  -0.2932  -0.2414  -0.1354  -0.1072  -0.0755
    -0.0171   0.0467   0.0923   0.2054   0.2961   0.3350   0.3625   0.4090
     0.4235   0.5037   0.5284   0.5482   0.5916   0.6279   0.6454   0.6576
     0.7937   0.8544   0.8919   0.9505   0.9763   0.9999   1.0379   1.0559
     1.0778   1.1171   1.1336   1.1591   1.2037   1.2451   1.2757   1.2964
     1.3413   1.3951   1.4513   1.4869   1.5122   1.5614   1.6122   1.6420
     1.6578   1.6851   1.7031   1.7335   1.7407   1.7725   1.7845   1.7999
     1.8061   1.8378   1.8586   1.8712   1.9206   1.9306   1.9574   1.9772
     2.0072   2.0279   2.0615   2.1118   2.1709   2.2047   2.2921   2.3670

          k = 0.3750-0.3750-0.3750 (132612 PWs)   bands (ev):

   -18.4851 -18.4371 -18.3927 -18.3423 -18.3395 -18.3383 -18.3356 -18.3318
   -18.3248 -18.3164 -18.3142 -18.3109 -18.3089 -18.3076 -18.3008 -18.2997
   -18.2973 -18.2969 -18.2919 -18.2911 -18.2900 -18.2882 -18.2862 -18.2849
   -18.2846 -18.2824 -18.2821 -18.2814 -18.2777 -18.2777 -18.2747 -18.2721
   -18.2695 -18.2693 -18.2623 -18.2086 -18.2027 -18.1966 -18.1891 -18.1827
   -18.1809 -18.1790 -18.1558 -18.1281 -18.1218 -18.1087 -18.1024 -18.0979
    -9.4262  -9.3204  -9.2354  -9.2054  -9.1849  -9.1414  -9.0982  -9.0678
    -8.9794  -8.9567  -8.9222  -8.9030  -8.8672  -8.8431  -8.8210  -8.7987
    -8.7808  -8.7518  -8.7360  -8.6972  -8.6424  -8.6153  -8.5940  -8.5785
    -5.2590  -5.2494  -5.2416  -5.2291  -5.2174  -5.2019  -5.1766  -5.1741
    -5.1620  -5.1382  -5.1086  -5.0968  -5.0721  -5.0586  -5.0518  -4.9957
    -4.9861  -4.9769  -4.9760  -4.9658  -4.9570  -4.9461  -4.9363  -4.9310
    -4.0587  -3.9257  -3.8387  -3.7533  -3.6959  -3.5948  -3.5121  -3.3843
    -0.4319  -0.3625  -0.3349  -0.2650  -0.2363  -0.2029  -0.1425  -0.0636
     0.0097   0.0527   0.0848   0.1610   0.2950   0.3506   0.3906   0.4387
     0.4630   0.4951   0.5183   0.5591   0.5826   0.5954   0.6445   0.6586
     0.8292   0.8571   0.9005   0.9285   0.9501   1.0033   1.0057   1.0473
     1.0939   1.1165   1.1497   1.1710   1.2012   1.2354   1.2816   1.3061
     1.3466   1.4238   1.4490   1.4649   1.5076   1.5525   1.5939   1.6233
     1.6596   1.6879   1.7078   1.7346   1.7562   1.7691   1.7860   1.8014
     1.8106   1.8332   1.8514   1.8780   1.9057   1.9418   1.9500   1.9691
     2.0027   2.0643   2.0912   2.1094   2.1627   2.2135   2.2750   2.3441

     highest occupied level (ev):     3.0518

!    total energy              =   -2256.28347142 Ry
     estimated scf accuracy    <          2.5E-11 Ry

     The total energy is the sum of the following terms:
     one-electron contribution =    -985.88590252 Ry
     hartree contribution      =     620.99446960 Ry
     xc contribution           =    -647.51720344 Ry
     ewald contribution        =   -1243.87483505 Ry

     convergence has been achieved in  15 iterations

     Forces acting on atoms (cartesian axes, Ry/au):

     atom    1 type  1   force =    -0.00162517   -0.00600603    0.00042867
     atom    2 type  2   force =    -0.00240312    0.00607304   -0.01014919
     atom    3 type  3   force =     0.01439036   -0.00670923   -0.00221420
     atom    4 type  3   force =     0.00387191   -0.00513387    0.01636175
     atom    5 type  3   force =    -0.00233860    0.00269945   -0.00425481
     atom    6 type  1   force =     0.00270697    0.00514117    0.00228978
     atom    7 type  2   force =     0.00358434   -0.00426214    0.00610331
     atom    8 type  3   force =    -0.00182213    0.00098704    0.00143414
     atom    9 type  3   force =    -0.00951002   -0.00687250   -0.00337406
     atom   10 type  3   force =     0.00162587   -0.00342411   -0.00245122
     atom   11 type  1   force =    -0.00625605   -0.00510549    0.00123570
     atom   12 type  2   force =     0.01786450   -0.00520855   -0.00697732
     atom   13 type  3   force =     0.00351891   -0.00863601    0.01258795
     atom   14 type  3   force =    -0.00751202    0.01357958   -0.00945160
     atom   15 type  3   force =     0.00560467    0.00124851    0.00073728
     atom   16 type  1   force =     0.00077823    0.00332836   -0.00307408
     atom   17 type  2   force =     0.01928138    0.01085898   -0.01023539
     atom   18 type  3   force =    -0.00229291    0.00503099   -0.00939253
     atom   19 type  3   force =    -0.00524091   -0.00464219    0.01072226
     atom   20 type  3   force =    -0.00004209    0.00294594   -0.00459416
     atom   21 type  1   force =     0.00627834   -0.00014891   -0.00339104
     atom   22 type  2   force =    -0.00314857   -0.00737463    0.00387334
     atom   23 type  3   force =    -0.01793350    0.00346769    0.00098912
     atom   24 type  3   force =     0.01653623    0.01690974   -0.00674888
     atom   25 type  3   force =     0.00562370    0.00534043   -0.00288299
     atom   26 type  1   force =     0.00127220   -0.00162832   -0.00309105
     atom   27 type  2   force =    -0.00282634   -0.00985358    0.00070634
     atom   28 type  3   force =    -0.00538084   -0.00220643    0.00192139
     atom   29 type  3   force =    -0.00142666    0.00736658   -0.00403730
     atom   30 type  3   force =    -0.00158059    0.00198611    0.00056297
     atom   31 type  1   force =    -0.00525065    0.00840767    0.01200608
     atom   32 type  2   force =    -0.01186169   -0.00206819   -0.00650478
     atom   33 type  3   force =     0.01541152   -0.01537794   -0.00782101
     atom   34 type  3   force =    -0.00748890    0.00384612    0.00593296
     atom   35 type  3   force =    -0.00703663    0.00587108    0.00491684
     atom   36 type  1   force =     0.00090289   -0.00106749   -0.00166358
     atom   37 type  2   force =    -0.00807064    0.00182902    0.01249041
     atom   38 type  3   force =    -0.01504294   -0.00062853   -0.00534222
     atom   39 type  3   force =     0.00878070   -0.00416002    0.00860784
     atom   40 type  3   force =    -0.00194174   -0.00640334    0.00374325

     Total force =     0.079554     Total SCF correction =     0.000019


     Computing stress (Cartesian axis) and pressure

          total   stress  (Ry/bohr**3)                   (kbar)     P=       -7.18
  -0.00004513   0.00000326   0.00000026           -6.64        0.48        0.04
   0.00000326  -0.00004465  -0.00000073            0.48       -6.57       -0.11
   0.00000026  -0.00000073  -0.00005673            0.04       -0.11       -8.35

 
     init_run     :     20.10s CPU     16.83s WALL (       1 calls)
     electrons    :    201.14s CPU    211.24s WALL (       1 calls)
     forces       :      8.82s CPU      3.88s WALL (       1 calls)
     stress       :     31.59s CPU     30.24s WALL (       1 calls)

     Called by init_run:
     wfcinit      :     12.24s CPU     13.80s WALL (       1 calls)
                                       13.80s GPU  (       1 calls)
     potinit      :      4.50s CPU      1.38s WALL (       1 calls)
     hinit0       :      2.79s CPU      0.98s WALL (       1 calls)

     Called by electrons:
     c_bands      :    120.89s CPU    169.46s WALL (      16 calls)
     sum_band     :     21.54s CPU     20.69s WALL (      16 calls)
                                       20.69s GPU  (      16 calls)
     v_of_rho     :     54.42s CPU     16.39s WALL (      16 calls)
     mix_rho      :      6.33s CPU      4.89s WALL (      16 calls)

     Called by c_bands:
     init_us_2    :      2.51s CPU      3.20s WALL (     280 calls)
                                        3.20s GPU  (     280 calls)
     cegterg      :     79.52s CPU    125.64s WALL (     128 calls)

     Called by *egterg:
     cdiaghg      :     14.01s CPU     25.69s WALL (     644 calls)
                                       25.66s GPU  (     644 calls)
     h_psi        :     53.95s CPU     72.55s WALL (     660 calls)
                                       72.12s GPU  (     660 calls)
     g_psi        :      0.00s CPU      0.35s WALL (     524 calls)
                                        0.34s GPU  (     524 calls)

     Called by h_psi:
     h_psi:calbec :      0.31s CPU      9.65s WALL (     660 calls)
                                        9.64s GPU  (     660 calls)
     vloc_psi     :     39.27s CPU     53.31s WALL (     660 calls)
                                       52.41s GPU  (     660 calls)
     add_vuspsi   :      0.33s CPU      9.52s WALL (     660 calls)
                                        9.51s GPU  (     660 calls)

     General routines
     calbec       :      0.31s CPU      0.39s WALL (     700 calls)
     fft          :     25.50s CPU      6.51s WALL (     185 calls)
                                        0.00s GPU  (       6 calls)
     ffts         :      2.58s CPU      0.68s WALL (      16 calls)
     fftw         :      0.69s CPU     61.87s WALL (   10294 calls)
                                       46.27s GPU  (   10294 calls)
 
     Parallel routines
 
     PWSCF        :   4m22.35s CPU   4m22.98s WALL

 
   This run was terminated on:  21:50:59  22Apr2021            

=------------------------------------------------------------------------------=
   JOB DONE.
=------------------------------------------------------------------------------=
