
     Program PWSCF v.6.7MaX starts on 22Apr2021 at 20:27: 2 

     This program is part of the open-source Quantum ESPRESSO suite
     for quantum simulation of materials; please cite
         "P. Giannozzi et al., J. Phys.:Condens. Matter 21 395502 (2009);
         "P. Giannozzi et al., J. Phys.:Condens. Matter 29 465901 (2017);
         "P. Giannozzi et al., J. Chem. Phys. 152 154105 (2020);
          URL http://www.quantum-espresso.org", 
     in publications or presentations arising from this work. More details at
     http://www.quantum-espresso.org/quote

     Parallel version (MPI & OpenMP), running on      16 processor cores
     Number of MPI processes:                 4
     Threads/MPI process:                     4

     MPI processes distributed on     1 nodes
     K-points division:     npool     =       4
     Reading input from ESP_58.pwi
Warning: card &CELL ignored
Warning: card / ignored

     Current dimensions of program PWSCF are:
     Max number of different atomic species (ntypx) = 10
     Max number of k-points (npk) =  40000
     Max angular momentum in pseudopotentials (lmaxx) =  3
     Message from routine read_pp_mesh:
     mesh size missing, using the one in header
     Message from routine read_pp_mesh:
     mesh size missing, using the one in header
     Message from routine read_pp_mesh:
     mesh size missing, using the one in header

     Subspace diagonalization in iterative solution of the eigenvalue problem:
     a serial algorithm will be used

 
     G-vector sticks info
     --------------------
     sticks:   dense  smooth     PW     G-vecs:    dense   smooth      PW
     Sum       12589   12589   3289              1061107  1061107  140905
 
     Using Slab Decomposition
 


     bravais-lattice index     =            0
     lattice parameter (alat)  =      23.7585  a.u.
     unit-cell volume          =   13410.8736 (a.u.)^3
     number of atoms/cell      =           40
     number of atomic types    =            3
     number of electrons       =       352.00
     number of Kohn-Sham states=          176
     kinetic-energy cutoff     =      70.0000  Ry
     charge density cutoff     =     280.0000  Ry
     scf convergence threshold =      1.0E-10
     mixing beta               =       0.7000
     number of iterations used =            8  plain     mixing
     Exchange-correlation= PBESOL
                           (   1   4  10   8   0   0   0)

     GPU acceleration is ACTIVE.


     celldm(1)=  23.758500  celldm(2)=   0.000000  celldm(3)=   0.000000
     celldm(4)=   0.000000  celldm(5)=   0.000000  celldm(6)=   0.000000

     crystal axes: (cart. coord. in units of alat)
               a(1) = (   1.000000   0.000000   0.000000 )  
               a(2) = (   0.000000   1.000000   0.000000 )  
               a(3) = (   0.000000   0.000000   1.000000 )  

     reciprocal axes: (cart. coord. in units 2 pi/alat)
               b(1) = (  1.000000  0.000000  0.000000 )  
               b(2) = (  0.000000  1.000000  0.000000 )  
               b(3) = (  0.000000  0.000000  1.000000 )  


     PseudoPot. # 1 for Cs read from file:
     /m100/home/userexternal/lmonacel/espresso/pseudo/Cs-nc-pbesol.upf
     MD5 check sum: 9d2f2206a14dc5b3b3f3fbfae186bed4
     Pseudo is Norm-conserving + core correction, Zval =  9.0
     Generated using ONCVPSP code by D. R. Hamann
     Using radial grid of 2384 points,  8 beta functions with: 
                l(1) =   0
                l(2) =   0
                l(3) =   1
                l(4) =   1
                l(5) =   2
                l(6) =   2
                l(7) =   3
                l(8) =   3

     PseudoPot. # 2 for Sn read from file:
     /m100/home/userexternal/lmonacel/espresso/pseudo/Sn-nc-pbesol.upf
     MD5 check sum: c2995d571af40102bfea7461443d92cf
     Pseudo is Norm-conserving + core correction, Zval = 14.0
     Generated using ONCVPSP code by D. R. Hamann
     Using radial grid of 1628 points,  6 beta functions with: 
                l(1) =   0
                l(2) =   0
                l(3) =   1
                l(4) =   1
                l(5) =   2
                l(6) =   2

     PseudoPot. # 3 for I  read from file:
     /m100/home/userexternal/lmonacel/espresso/pseudo/I-nc-pbesol.upf
     MD5 check sum: 80ed5ceb2eb9c553cfb6760a299d9c5b
     Pseudo is Norm-conserving + core correction, Zval =  7.0
     Generated using ONCVPSP code by D. R. Hamann
     Using radial grid of 1182 points,  6 beta functions with: 
                l(1) =   0
                l(2) =   0
                l(3) =   1
                l(4) =   1
                l(5) =   2
                l(6) =   2

     atomic species   valence    mass     pseudopotential
        Cs             9.00   132.90545     Cs( 1.00)
        Sn            14.00   118.71000     Sn( 1.00)
        I              7.00   126.90447     I ( 1.00)

     No symmetry found



   Cartesian axes

     site n.     atom                  positions (alat units)
         1           Cs  tau(   1) = (   0.2695452   0.2620302   0.2335718  )
         2           Sn  tau(   2) = (   0.0220070   0.0067638   0.0193471  )
         3           I   tau(   3) = (   0.2718158   0.0044462  -0.0137769  )
         4           I   tau(   4) = (  -0.0043453  -0.0219468   0.2848094  )
         5           I   tau(   5) = (   0.0337645   0.2507529  -0.0001137  )
         6           Cs  tau(   6) = (   0.2164793   0.2530070   0.7408714  )
         7           Sn  tau(   7) = (  -0.0177855   0.0007631   0.5230382  )
         8           I   tau(   8) = (   0.2433262  -0.0243587   0.5198232  )
         9           I   tau(   9) = (  -0.0082116   0.0102136   0.7753550  )
        10           I   tau(  10) = (   0.0215231   0.2620172   0.5250881  )
        11           Cs  tau(  11) = (   0.2581002   0.7384398   0.2597149  )
        12           Sn  tau(  12) = (   0.0110372   0.4848965   0.0133293  )
        13           I   tau(  13) = (   0.2558265   0.5112274  -0.0128256  )
        14           I   tau(  14) = (   0.0187816   0.5132527   0.2570708  )
        15           I   tau(  15) = (   0.0315291   0.7510825   0.0004366  )
        16           Cs  tau(  16) = (   0.2659029   0.7821262   0.7445143  )
        17           Sn  tau(  17) = (  -0.0158241   0.5089717   0.5101643  )
        18           I   tau(  18) = (   0.2323931   0.5340634   0.5436291  )
        19           I   tau(  19) = (  -0.0177410   0.4927433   0.7509123  )
        20           I   tau(  20) = (  -0.0142610   0.7558118   0.5361466  )
        21           Cs  tau(  21) = (   0.7378671   0.2382915   0.2588391  )
        22           Sn  tau(  22) = (   0.5194959   0.0031616  -0.0175440  )
        23           I   tau(  23) = (   0.7915111   0.0109414  -0.0089798  )
        24           I   tau(  24) = (   0.5057886   0.0099628   0.2449555  )
        25           I   tau(  25) = (   0.5173761   0.2525217  -0.0008591  )
        26           Cs  tau(  26) = (   0.7255139   0.2571940   0.7405233  )
        27           Sn  tau(  27) = (   0.4842934   0.0044980   0.4778374  )
        28           I   tau(  28) = (   0.7385612   0.0018955   0.5011671  )
        29           I   tau(  29) = (   0.5106616  -0.0107821   0.7545110  )
        30           I   tau(  30) = (   0.4881813   0.2306075   0.4929679  )
        31           Cs  tau(  31) = (   0.7311353   0.7027254   0.2051456  )
        32           Sn  tau(  32) = (   0.5068411   0.5065819  -0.0125124  )
        33           I   tau(  33) = (   0.7478344   0.5182108  -0.0261878  )
        34           I   tau(  34) = (   0.4613315   0.4734853   0.2379324  )
        35           I   tau(  35) = (   0.5174073   0.7657182   0.0026370  )
        36           Cs  tau(  36) = (   0.7410655   0.7489669   0.7382066  )
        37           Sn  tau(  37) = (   0.4905319   0.4905961   0.4929802  )
        38           I   tau(  38) = (   0.7216121   0.4739815   0.4747445  )
        39           I   tau(  39) = (   0.4907482   0.5068152   0.7519981  )
        40           I   tau(  40) = (   0.5009895   0.7395399   0.4846774  )

     number of k points=    32
                       cart. coord. in units 2pi/alat
        k(    1) = (   0.1250000   0.1250000   0.1250000), wk =   0.0625000
        k(    2) = (   0.1250000   0.1250000   0.3750000), wk =   0.0625000
        k(    3) = (   0.1250000   0.3750000   0.3750000), wk =   0.0625000
        k(    4) = (   0.3750000   0.3750000   0.3750000), wk =   0.0625000
        k(    5) = (  -0.1250000  -0.1250000   0.1250000), wk =   0.0625000
        k(    6) = (  -0.1250000   0.1250000  -0.1250000), wk =   0.0625000
        k(    7) = (   0.1250000  -0.1250000  -0.1250000), wk =   0.0625000
        k(    8) = (  -0.1250000  -0.1250000   0.3750000), wk =   0.0625000
        k(    9) = (  -0.1250000   0.1250000  -0.3750000), wk =   0.0625000
        k(   10) = (   0.1250000  -0.1250000  -0.3750000), wk =   0.0625000
        k(   11) = (   0.3750000  -0.1250000   0.1250000), wk =   0.0625000
        k(   12) = (  -0.3750000  -0.1250000  -0.1250000), wk =   0.0625000
        k(   13) = (   0.3750000   0.1250000  -0.1250000), wk =   0.0625000
        k(   14) = (  -0.3750000   0.1250000   0.1250000), wk =   0.0625000
        k(   15) = (  -0.1250000   0.3750000   0.1250000), wk =   0.0625000
        k(   16) = (  -0.1250000  -0.3750000  -0.1250000), wk =   0.0625000
        k(   17) = (   0.1250000   0.3750000  -0.1250000), wk =   0.0625000
        k(   18) = (   0.1250000  -0.3750000   0.1250000), wk =   0.0625000
        k(   19) = (  -0.1250000  -0.3750000   0.3750000), wk =   0.0625000
        k(   20) = (  -0.1250000   0.3750000  -0.3750000), wk =   0.0625000
        k(   21) = (   0.1250000  -0.3750000  -0.3750000), wk =   0.0625000
        k(   22) = (   0.3750000   0.1250000  -0.3750000), wk =   0.0625000
        k(   23) = (  -0.3750000  -0.1250000  -0.3750000), wk =   0.0625000
        k(   24) = (   0.3750000  -0.1250000   0.3750000), wk =   0.0625000
        k(   25) = (  -0.3750000   0.1250000   0.3750000), wk =   0.0625000
        k(   26) = (   0.3750000  -0.3750000   0.1250000), wk =   0.0625000
        k(   27) = (  -0.3750000  -0.3750000  -0.1250000), wk =   0.0625000
        k(   28) = (   0.3750000   0.3750000  -0.1250000), wk =   0.0625000
        k(   29) = (  -0.3750000   0.3750000   0.1250000), wk =   0.0625000
        k(   30) = (  -0.3750000  -0.3750000   0.3750000), wk =   0.0625000
        k(   31) = (  -0.3750000   0.3750000  -0.3750000), wk =   0.0625000
        k(   32) = (   0.3750000  -0.3750000  -0.3750000), wk =   0.0625000

     Dense  grid:  1061107 G-vectors     FFT dimensions: ( 128, 128, 128)

     Estimated max dynamical RAM per process >       6.82 GB

     Estimated total dynamical RAM >      27.27 GB

     Initial potential from superposition of free atoms

     starting charge  351.69472, renormalised to  352.00000
     Starting wfcs are  208 randomized atomic wfcs

     total cpu time spent up to now is       17.8 secs

     Self-consistent Calculation

     iteration #  1     ecut=    70.00 Ry     beta= 0.70
     Davidson diagonalization with overlap
     ethr =  1.00E-02,  avg # of iterations =  2.0

     Threshold (ethr) on eigenvalues was too large:
     Diagonalizing with lowered threshold

     Davidson diagonalization with overlap
     ethr =  2.16E-04,  avg # of iterations =  4.0

     total cpu time spent up to now is       38.8 secs

     total energy              =   -2256.02076744 Ry
     estimated scf accuracy    <       0.65912388 Ry

     iteration #  2     ecut=    70.00 Ry     beta= 0.70
     Davidson diagonalization with overlap
     ethr =  1.87E-04,  avg # of iterations =  3.3

     total cpu time spent up to now is       51.7 secs

     total energy              =   -2256.21162096 Ry
     estimated scf accuracy    <       0.33751508 Ry

     iteration #  3     ecut=    70.00 Ry     beta= 0.70
     Davidson diagonalization with overlap
     ethr =  9.59E-05,  avg # of iterations =  2.9

     total cpu time spent up to now is       63.7 secs

     total energy              =   -2256.27836135 Ry
     estimated scf accuracy    <       0.04168248 Ry

     iteration #  4     ecut=    70.00 Ry     beta= 0.70
     Davidson diagonalization with overlap
     ethr =  1.18E-05,  avg # of iterations =  3.9

     total cpu time spent up to now is       76.2 secs

     total energy              =   -2256.29040386 Ry
     estimated scf accuracy    <       0.00348365 Ry

     iteration #  5     ecut=    70.00 Ry     beta= 0.70
     Davidson diagonalization with overlap
     ethr =  9.90E-07,  avg # of iterations =  4.1

     total cpu time spent up to now is       89.4 secs

     total energy              =   -2256.29108689 Ry
     estimated scf accuracy    <       0.00147801 Ry

     iteration #  6     ecut=    70.00 Ry     beta= 0.70
     Davidson diagonalization with overlap
     ethr =  4.20E-07,  avg # of iterations =  3.0

     total cpu time spent up to now is      101.6 secs

     total energy              =   -2256.29134746 Ry
     estimated scf accuracy    <       0.00019165 Ry

     iteration #  7     ecut=    70.00 Ry     beta= 0.70
     Davidson diagonalization with overlap
     ethr =  5.44E-08,  avg # of iterations =  4.0

     total cpu time spent up to now is      114.4 secs

     total energy              =   -2256.29139261 Ry
     estimated scf accuracy    <       0.00003053 Ry

     iteration #  8     ecut=    70.00 Ry     beta= 0.70
     Davidson diagonalization with overlap
     ethr =  8.67E-09,  avg # of iterations =  4.1

     total cpu time spent up to now is      128.3 secs

     total energy              =   -2256.29140188 Ry
     estimated scf accuracy    <       0.00000706 Ry

     iteration #  9     ecut=    70.00 Ry     beta= 0.70
     Davidson diagonalization with overlap
     ethr =  2.01E-09,  avg # of iterations =  4.1

     total cpu time spent up to now is      142.1 secs

     total energy              =   -2256.29140441 Ry
     estimated scf accuracy    <       0.00000119 Ry

     iteration # 10     ecut=    70.00 Ry     beta= 0.70
     Davidson diagonalization with overlap
     ethr =  3.39E-10,  avg # of iterations =  3.4

     total cpu time spent up to now is      155.9 secs

     total energy              =   -2256.29140475 Ry
     estimated scf accuracy    <       0.00000032 Ry

     iteration # 11     ecut=    70.00 Ry     beta= 0.70
     Davidson diagonalization with overlap
     ethr =  8.97E-11,  avg # of iterations =  3.5

     total cpu time spent up to now is      169.5 secs

     total energy              =   -2256.29140484 Ry
     estimated scf accuracy    <       0.00000005 Ry

     iteration # 12     ecut=    70.00 Ry     beta= 0.70
     Davidson diagonalization with overlap
     ethr =  1.32E-11,  avg # of iterations =  6.9

     total cpu time spent up to now is      187.1 secs

     total energy              =   -2256.29140488 Ry
     estimated scf accuracy    <       0.00000002 Ry

     iteration # 13     ecut=    70.00 Ry     beta= 0.70
     Davidson diagonalization with overlap
     ethr =  6.22E-12,  avg # of iterations =  3.7

     total cpu time spent up to now is      199.9 secs

     total energy              =   -2256.29140489 Ry
     estimated scf accuracy    <          2.9E-09 Ry

     iteration # 14     ecut=    70.00 Ry     beta= 0.70
     Davidson diagonalization with overlap
     ethr =  8.24E-13,  avg # of iterations =  5.5

     total cpu time spent up to now is      214.4 secs

     total energy              =   -2256.29140489 Ry
     estimated scf accuracy    <          3.4E-10 Ry

     iteration # 15     ecut=    70.00 Ry     beta= 0.70
     Davidson diagonalization with overlap
     ethr =  1.00E-13,  avg # of iterations =  5.6

     total cpu time spent up to now is      231.1 secs

     total energy              =   -2256.29140489 Ry
     estimated scf accuracy    <          1.8E-10 Ry

     iteration # 16     ecut=    70.00 Ry     beta= 0.70
     Davidson diagonalization with overlap
     ethr =  1.00E-13,  avg # of iterations =  2.1

     total cpu time spent up to now is      242.3 secs

     End of self-consistent calculation

          k = 0.1250 0.1250 0.1250 (132670 PWs)   bands (ev):

   -18.6018 -18.4887 -18.4826 -18.4402 -18.3656 -18.3627 -18.3597 -18.3531
   -18.3511 -18.3435 -18.3329 -18.3175 -18.3119 -18.3060 -18.3004 -18.2935
   -18.2812 -18.2710 -18.2671 -18.2575 -18.2545 -18.2327 -18.2266 -18.2259
   -18.2214 -18.2150 -18.2137 -18.2053 -18.1954 -18.1855 -18.1781 -18.1761
   -18.1735 -18.1691 -18.1571 -18.1471 -18.1434 -18.1159 -18.1117 -18.1052
   -18.1036 -18.0998 -18.0990 -18.0890 -18.0872 -18.0851 -18.0841 -18.0763
    -9.5190  -9.4034  -9.3319  -9.2943  -9.1913  -9.0969  -9.0646  -9.0516
    -9.0323  -9.0038  -8.9784  -8.9339  -8.8581  -8.8388  -8.8083  -8.7974
    -8.7633  -8.7530  -8.7228  -8.6197  -8.6013  -8.5510  -8.5111  -8.3259
    -5.3743  -5.3555  -5.3511  -5.2750  -5.2633  -5.2570  -5.2500  -5.2423
    -5.2367  -5.2247  -5.2162  -5.2041  -5.1378  -5.1360  -5.1279  -5.1220
    -5.1150  -5.1047  -5.0228  -5.0097  -4.9931  -4.8737  -4.8639  -4.8499
    -4.4646  -3.9939  -3.9067  -3.8979  -3.4098  -3.3570  -3.3205  -2.7348
    -0.7815  -0.7300  -0.6484  -0.6280  -0.5895  -0.5491  -0.4908  -0.4543
    -0.4296  -0.3782  -0.3350  -0.2444   0.4072   0.4448   0.4767   0.6056
     0.6283   0.6821   0.7077   0.7419   0.7893   0.8593   0.9040   0.9554
     0.9817   1.0348   1.0618   1.0815   1.1130   1.1348   1.1460   1.1666
     1.1993   1.2417   1.2610   1.2893   1.2965   1.3212   1.3345   1.3731
     1.4165   1.4244   1.4540   1.4607   1.4725   1.5020   1.5296   1.5525
     1.5952   1.6400   1.6526   1.6687   1.7148   1.7411   1.7664   1.7919
     1.8137   1.9093   1.9437   1.9545   1.9839   2.1156   2.1368   2.1802
     2.2309   2.2514   2.2874   2.3793   2.6394   2.7235   2.7768   3.1557

          k = 0.1250 0.1250 0.3750 (132608 PWs)   bands (ev):

   -18.6018 -18.4887 -18.4826 -18.4402 -18.3656 -18.3627 -18.3597 -18.3531
   -18.3511 -18.3435 -18.3329 -18.3175 -18.3119 -18.3060 -18.3004 -18.2935
   -18.2812 -18.2710 -18.2671 -18.2575 -18.2545 -18.2327 -18.2266 -18.2259
   -18.2214 -18.2150 -18.2137 -18.2053 -18.1954 -18.1855 -18.1781 -18.1761
   -18.1735 -18.1691 -18.1571 -18.1471 -18.1434 -18.1159 -18.1117 -18.1052
   -18.1036 -18.0998 -18.0990 -18.0890 -18.0872 -18.0851 -18.0841 -18.0763
    -9.5072  -9.4098  -9.3291  -9.2988  -9.2098  -9.1029  -9.0641  -9.0455
    -9.0299  -8.9939  -8.9764  -8.9452  -8.8580  -8.8283  -8.8091  -8.7864
    -8.7691  -8.7567  -8.7295  -8.6138  -8.5780  -8.5525  -8.5310  -8.3272
    -5.3743  -5.3554  -5.3510  -5.2746  -5.2624  -5.2569  -5.2507  -5.2426
    -5.2360  -5.2252  -5.2164  -5.2044  -5.1377  -5.1355  -5.1273  -5.1225
    -5.1146  -5.1056  -5.0229  -5.0096  -4.9931  -4.8736  -4.8642  -4.8498
    -4.3344  -4.1249  -3.8159  -3.7885  -3.5769  -3.5286  -3.1999  -2.9649
    -0.7232  -0.6846  -0.6309  -0.5769  -0.5410  -0.4803  -0.4227  -0.3709
    -0.1860  -0.1115  -0.0367   0.1015   0.3446   0.3923   0.4921   0.5175
     0.5565   0.5931   0.6120   0.6619   0.6802   0.7118   0.7727   0.8289
     0.8576   0.9034   0.9819   1.0086   1.0556   1.1056   1.1470   1.1612
     1.1992   1.2434   1.2540   1.2744   1.2894   1.3128   1.3751   1.3930
     1.4105   1.4337   1.4571   1.4738   1.4822   1.5234   1.5415   1.5731
     1.6174   1.6459   1.6624   1.6806   1.7066   1.7180   1.7434   1.7883
     1.8151   1.8391   1.8830   1.9760   2.0061   2.0342   2.0984   2.1551
     2.1897   2.2197   2.2507   2.3494   2.4056   2.5034   2.7421   2.9309

          k = 0.1250 0.3750 0.3750 (132616 PWs)   bands (ev):

   -18.6018 -18.4887 -18.4826 -18.4402 -18.3656 -18.3627 -18.3597 -18.3531
   -18.3511 -18.3435 -18.3329 -18.3175 -18.3119 -18.3060 -18.3004 -18.2935
   -18.2812 -18.2710 -18.2671 -18.2575 -18.2545 -18.2327 -18.2266 -18.2259
   -18.2214 -18.2150 -18.2137 -18.2053 -18.1954 -18.1855 -18.1781 -18.1761
   -18.1735 -18.1692 -18.1571 -18.1471 -18.1434 -18.1159 -18.1117 -18.1052
   -18.1036 -18.0998 -18.0990 -18.0890 -18.0872 -18.0851 -18.0841 -18.0763
    -9.4996  -9.3955  -9.3466  -9.2985  -9.2333  -9.0887  -9.0705  -9.0421
    -9.0271  -9.0027  -8.9626  -8.9378  -8.8882  -8.8263  -8.8118  -8.7890
    -8.7644  -8.7549  -8.6929  -8.6160  -8.5833  -8.5537  -8.5382  -8.3284
    -5.3742  -5.3553  -5.3510  -5.2744  -5.2628  -5.2561  -5.2510  -5.2427
    -5.2358  -5.2255  -5.2164  -5.2044  -5.1377  -5.1354  -5.1273  -5.1225
    -5.1147  -5.1057  -5.0230  -5.0097  -4.9932  -4.8736  -4.8639  -4.8500
    -4.2046  -4.0126  -3.9706  -3.7601  -3.6467  -3.4526  -3.3580  -3.1741
    -0.6431  -0.5561  -0.5430  -0.4840  -0.4317  -0.3014  -0.2688  -0.1327
    -0.0591   0.0053   0.0787   0.1410   0.2650   0.3553   0.4498   0.5012
     0.5314   0.5724   0.5991   0.6135   0.6386   0.6880   0.7184   0.7515
     0.7917   0.8411   0.8825   0.9049   0.9524   1.0214   1.0336   1.1082
     1.1318   1.1674   1.2098   1.2545   1.2758   1.3109   1.3349   1.3692
     1.3914   1.4543   1.4644   1.4798   1.5192   1.5465   1.5845   1.5958
     1.6121   1.6363   1.6734   1.6951   1.7201   1.7447   1.7610   1.8035
     1.8192   1.8490   1.9016   1.9449   1.9804   2.0028   2.0563   2.0745
     2.1280   2.1556   2.1784   2.2332   2.2981   2.4134   2.5150   2.6634

          k = 0.3750 0.3750 0.3750 (132612 PWs)   bands (ev):

   -18.6018 -18.4887 -18.4826 -18.4402 -18.3656 -18.3627 -18.3597 -18.3531
   -18.3511 -18.3435 -18.3329 -18.3175 -18.3119 -18.3060 -18.3004 -18.2935
   -18.2812 -18.2710 -18.2671 -18.2575 -18.2545 -18.2327 -18.2266 -18.2259
   -18.2214 -18.2150 -18.2137 -18.2053 -18.1954 -18.1855 -18.1781 -18.1761
   -18.1735 -18.1691 -18.1571 -18.1471 -18.1434 -18.1159 -18.1117 -18.1052
   -18.1036 -18.0998 -18.0990 -18.0890 -18.0872 -18.0851 -18.0841 -18.0763
    -9.4979  -9.3854  -9.3443  -9.2986  -9.2410  -9.1149  -9.0676  -9.0491
    -9.0246  -9.0046  -8.9643  -8.9370  -8.8815  -8.8343  -8.8059  -8.7847
    -8.7459  -8.7340  -8.7025  -8.6185  -8.5864  -8.5587  -8.5415  -8.3288
    -5.3743  -5.3553  -5.3510  -5.2743  -5.2627  -5.2567  -5.2510  -5.2429
    -5.2360  -5.2254  -5.2159  -5.2043  -5.1385  -5.1349  -5.1277  -5.1217
    -5.1156  -5.1047  -5.0229  -5.0096  -4.9932  -4.8736  -4.8638  -4.8501
    -4.0901  -3.9445  -3.8863  -3.8074  -3.6292  -3.5958  -3.4824  -3.3483
    -0.4579  -0.4331  -0.3662  -0.2857  -0.2580  -0.1995  -0.1422  -0.0759
    -0.0397   0.0241   0.0879   0.1650   0.2803   0.3404   0.3956   0.4498
     0.4721   0.4991   0.5366   0.5528   0.6047   0.6250   0.6498   0.7077
     0.8232   0.8727   0.8934   0.9181   0.9533   0.9766   1.0119   1.0309
     1.0874   1.1077   1.1174   1.1557   1.2082   1.2502   1.2794   1.3130
     1.4020   1.4381   1.4847   1.5075   1.5364   1.5492   1.5772   1.6004
     1.6393   1.6816   1.6920   1.7343   1.7434   1.7745   1.7925   1.8077
     1.8419   1.8509   1.8863   1.9294   1.9365   1.9605   1.9870   2.0176
     2.0858   2.1237   2.1396   2.1688   2.2102   2.2261   2.2886   2.4221

          k =-0.1250-0.1250 0.1250 (132670 PWs)   bands (ev):

   -18.6018 -18.4887 -18.4826 -18.4402 -18.3656 -18.3627 -18.3597 -18.3531
   -18.3511 -18.3435 -18.3329 -18.3175 -18.3119 -18.3060 -18.3004 -18.2935
   -18.2812 -18.2710 -18.2671 -18.2575 -18.2545 -18.2327 -18.2266 -18.2259
   -18.2214 -18.2150 -18.2137 -18.2053 -18.1954 -18.1855 -18.1781 -18.1761
   -18.1735 -18.1691 -18.1571 -18.1471 -18.1434 -18.1159 -18.1117 -18.1052
   -18.1036 -18.0998 -18.0990 -18.0890 -18.0872 -18.0851 -18.0841 -18.0763
    -9.5193  -9.4031  -9.3264  -9.3014  -9.1906  -9.0915  -9.0630  -9.0534
    -9.0357  -9.0070  -8.9815  -8.9247  -8.8680  -8.8352  -8.8086  -8.7912
    -8.7623  -8.7546  -8.7261  -8.6196  -8.6001  -8.5512  -8.5116  -8.3258
    -5.3743  -5.3555  -5.3511  -5.2752  -5.2629  -5.2573  -5.2501  -5.2422
    -5.2365  -5.2245  -5.2161  -5.2044  -5.1371  -5.1364  -5.1275  -5.1227
    -5.1158  -5.1039  -5.0228  -5.0096  -4.9931  -4.8737  -4.8639  -4.8499
    -4.4653  -3.9937  -3.9081  -3.8935  -3.4138  -3.3587  -3.3195  -2.7322
    -0.7728  -0.7078  -0.6802  -0.6352  -0.5871  -0.5561  -0.4922  -0.4693
    -0.4028  -0.3908  -0.3337  -0.2286   0.4037   0.4414   0.4805   0.6018
     0.6316   0.6824   0.7107   0.7494   0.7862   0.8712   0.9205   0.9604
     0.9802   1.0027   1.0461   1.0735   1.1132   1.1439   1.1535   1.1822
     1.2003   1.2241   1.2413   1.2598   1.2963   1.3313   1.3560   1.3682
     1.3993   1.4357   1.4504   1.4611   1.4748   1.5238   1.5375   1.5632
     1.6022   1.6229   1.6673   1.6699   1.7061   1.7472   1.7696   1.8015
     1.8157   1.8973   1.9357   1.9578   1.9926   2.0957   2.1401   2.1865
     2.2117   2.2513   2.2869   2.3712   2.6501   2.7308   2.7767   3.1608

          k =-0.1250 0.1250-0.1250 (132670 PWs)   bands (ev):

   -18.6018 -18.4887 -18.4826 -18.4402 -18.3656 -18.3627 -18.3597 -18.3531
   -18.3511 -18.3435 -18.3329 -18.3175 -18.3119 -18.3060 -18.3004 -18.2935
   -18.2812 -18.2710 -18.2671 -18.2575 -18.2545 -18.2327 -18.2266 -18.2259
   -18.2214 -18.2150 -18.2137 -18.2053 -18.1954 -18.1855 -18.1781 -18.1761
   -18.1735 -18.1691 -18.1571 -18.1471 -18.1434 -18.1159 -18.1117 -18.1052
   -18.1036 -18.0998 -18.0990 -18.0890 -18.0872 -18.0851 -18.0841 -18.0763
    -9.5195  -9.4023  -9.3284  -9.2998  -9.1898  -9.0955  -9.0600  -9.0507
    -9.0351  -9.0161  -8.9763  -8.9249  -8.8656  -8.8379  -8.8031  -8.7957
    -8.7607  -8.7547  -8.7277  -8.6207  -8.5997  -8.5503  -8.5118  -8.3259
    -5.3744  -5.3555  -5.3511  -5.2752  -5.2626  -5.2575  -5.2502  -5.2423
    -5.2364  -5.2247  -5.2162  -5.2042  -5.1377  -5.1359  -5.1279  -5.1221
    -5.1150  -5.1047  -5.0228  -5.0096  -4.9931  -4.8738  -4.8638  -4.8499
    -4.4658  -3.9943  -3.9025  -3.8966  -3.4172  -3.3525  -3.3243  -2.7316
    -0.7719  -0.7339  -0.6657  -0.6307  -0.5789  -0.5378  -0.4874  -0.4741
    -0.4072  -0.3921  -0.3402  -0.2414   0.4059   0.4491   0.4757   0.5971
     0.6341   0.6792   0.7196   0.7425   0.7856   0.8588   0.9232   0.9526
     0.9945   1.0210   1.0597   1.0766   1.0950   1.1198   1.1588   1.1704
     1.2026   1.2180   1.2466   1.2820   1.3060   1.3322   1.3563   1.3743
     1.4131   1.4302   1.4420   1.4618   1.4799   1.5070   1.5353   1.5462
     1.5994   1.6277   1.6577   1.7004   1.7153   1.7301   1.7641   1.7864
     1.8232   1.8977   1.9383   1.9532   1.9879   2.1130   2.1303   2.1977
     2.2104   2.2485   2.2959   2.3744   2.6370   2.7437   2.7653   3.1568

          k = 0.1250-0.1250-0.1250 (132670 PWs)   bands (ev):

   -18.6018 -18.4887 -18.4826 -18.4402 -18.3656 -18.3627 -18.3597 -18.3531
   -18.3511 -18.3435 -18.3329 -18.3175 -18.3119 -18.3060 -18.3004 -18.2935
   -18.2812 -18.2710 -18.2671 -18.2575 -18.2545 -18.2327 -18.2266 -18.2259
   -18.2214 -18.2150 -18.2137 -18.2053 -18.1954 -18.1855 -18.1781 -18.1761
   -18.1735 -18.1691 -18.1571 -18.1471 -18.1434 -18.1159 -18.1117 -18.1052
   -18.1036 -18.0998 -18.0990 -18.0890 -18.0872 -18.0851 -18.0841 -18.0763
    -9.5191  -9.4025  -9.3341  -9.2923  -9.1922  -9.1011  -9.0568  -9.0531
    -9.0318  -9.0027  -8.9814  -8.9333  -8.8656  -8.8337  -8.8037  -8.7996
    -8.7616  -8.7536  -8.7256  -8.6188  -8.6016  -8.5508  -8.5114  -8.3259
    -5.3744  -5.3555  -5.3511  -5.2751  -5.2633  -5.2570  -5.2501  -5.2421
    -5.2367  -5.2244  -5.2162  -5.2044  -5.1370  -5.1364  -5.1275  -5.1227
    -5.1158  -5.1039  -5.0228  -5.0096  -4.9931  -4.8737  -4.8639  -4.8500
    -4.4646  -3.9932  -3.9110  -3.8936  -3.4132  -3.3549  -3.3208  -2.7331
    -0.7731  -0.7372  -0.6636  -0.6231  -0.5985  -0.5517  -0.4897  -0.4694
    -0.4136  -0.3743  -0.3259  -0.2281   0.4011   0.4422   0.4789   0.6054
     0.6252   0.6768   0.7106   0.7332   0.7872   0.8722   0.9270   0.9411
     0.9823   1.0108   1.0519   1.0880   1.1170   1.1336   1.1505   1.1779
     1.2192   1.2270   1.2531   1.2793   1.2891   1.3170   1.3549   1.3793
     1.3954   1.4204   1.4444   1.4635   1.4872   1.5084   1.5262   1.5407
     1.6144   1.6406   1.6497   1.6875   1.7053   1.7374   1.7707   1.7905
     1.8160   1.9177   1.9455   1.9552   1.9833   2.1083   2.1375   2.1908
     2.2049   2.2503   2.2899   2.3667   2.6249   2.7465   2.7977   3.1498

          k =-0.1250-0.1250 0.3750 (132608 PWs)   bands (ev):

   -18.6018 -18.4887 -18.4826 -18.4402 -18.3656 -18.3627 -18.3597 -18.3531
   -18.3511 -18.3435 -18.3329 -18.3175 -18.3119 -18.3060 -18.3004 -18.2935
   -18.2812 -18.2710 -18.2671 -18.2575 -18.2545 -18.2327 -18.2266 -18.2259
   -18.2214 -18.2150 -18.2137 -18.2053 -18.1954 -18.1855 -18.1781 -18.1761
   -18.1735 -18.1691 -18.1571 -18.1471 -18.1434 -18.1159 -18.1117 -18.1052
   -18.1036 -18.0998 -18.0990 -18.0890 -18.0872 -18.0851 -18.0841 -18.0763
    -9.5076  -9.4092  -9.3200  -9.3100  -9.2088  -9.0988  -9.0627  -9.0437
    -9.0347  -8.9998  -8.9807  -8.9334  -8.8655  -8.8264  -8.8087  -8.7812
    -8.7675  -8.7578  -8.7336  -8.6140  -8.5754  -8.5536  -8.5319  -8.3272
    -5.3742  -5.3554  -5.3511  -5.2748  -5.2618  -5.2575  -5.2508  -5.2425
    -5.2359  -5.2250  -5.2162  -5.2046  -5.1372  -5.1357  -5.1266  -5.1236
    -5.1155  -5.1047  -5.0229  -5.0096  -4.9931  -4.8737  -4.8642  -4.8498
    -4.3367  -4.1211  -3.8308  -3.7661  -3.5961  -3.5174  -3.2062  -2.9592
    -0.7250  -0.6641  -0.6387  -0.5759  -0.5373  -0.5087  -0.4200  -0.3739
    -0.1690  -0.1396  -0.0194   0.1163   0.3404   0.4061   0.4766   0.5188
     0.5498   0.5868   0.6140   0.6594   0.6962   0.7323   0.7532   0.8328
     0.8568   0.9209   0.9537   1.0098   1.0666   1.1024   1.1331   1.1575
     1.1980   1.2334   1.2421   1.2864   1.2953   1.3385   1.3614   1.3730
     1.3975   1.4253   1.4554   1.4698   1.4987   1.5346   1.5510   1.5929
     1.6064   1.6466   1.6573   1.6865   1.7060   1.7204   1.7609   1.7976
     1.8168   1.8463   1.8950   1.9542   1.9901   2.0273   2.1155   2.1365
     2.1592   2.2323   2.2534   2.3279   2.4423   2.4929   2.7535   2.9304

          k =-0.1250 0.1250-0.3750 (132608 PWs)   bands (ev):

   -18.6018 -18.4887 -18.4826 -18.4402 -18.3656 -18.3627 -18.3597 -18.3531
   -18.3511 -18.3435 -18.3329 -18.3175 -18.3119 -18.3060 -18.3004 -18.2935
   -18.2812 -18.2710 -18.2671 -18.2575 -18.2545 -18.2327 -18.2266 -18.2259
   -18.2214 -18.2150 -18.2137 -18.2053 -18.1954 -18.1855 -18.1781 -18.1761
   -18.1735 -18.1691 -18.1571 -18.1471 -18.1434 -18.1159 -18.1117 -18.1052
   -18.1036 -18.0998 -18.0990 -18.0890 -18.0872 -18.0851 -18.0841 -18.0763
    -9.5078  -9.4088  -9.3200  -9.3103  -9.2072  -9.1043  -9.0551  -9.0470
    -9.0309  -9.0110  -8.9735  -8.9341  -8.8622  -8.8291  -8.8072  -8.7836
    -8.7657  -8.7567  -8.7356  -8.6142  -8.5765  -8.5516  -8.5325  -8.3272
    -5.3743  -5.3554  -5.3510  -5.2748  -5.2617  -5.2575  -5.2508  -5.2427
    -5.2358  -5.2252  -5.2163  -5.2044  -5.1376  -5.1355  -5.1273  -5.1226
    -5.1146  -5.1056  -5.0229  -5.0096  -4.9931  -4.8737  -4.8641  -4.8498
    -4.3376  -4.1213  -3.8248  -3.7671  -3.5981  -3.5209  -3.2053  -2.9586
    -0.7216  -0.7041  -0.6203  -0.5676  -0.5287  -0.4854  -0.4242  -0.3690
    -0.1859  -0.1306  -0.0397   0.1007   0.3476   0.4157   0.4796   0.5268
     0.5498   0.5716   0.6116   0.6658   0.6918   0.7224   0.7806   0.8274
     0.8661   0.8999   0.9691   1.0242   1.0342   1.1041   1.1349   1.1690
     1.1974   1.2420   1.2542   1.2761   1.2902   1.3242   1.3579   1.3789
     1.4156   1.4293   1.4452   1.4604   1.5140   1.5319   1.5509   1.5917
     1.6024   1.6335   1.6657   1.6981   1.7106   1.7378   1.7495   1.7766
     1.8089   1.8413   1.8928   1.9535   1.9924   2.0164   2.1059   2.1611
     2.1778   2.2184   2.2682   2.3343   2.4310   2.4838   2.7458   2.9414

          k = 0.1250-0.1250-0.3750 (132608 PWs)   bands (ev):

   -18.6018 -18.4887 -18.4826 -18.4402 -18.3656 -18.3627 -18.3597 -18.3531
   -18.3511 -18.3435 -18.3329 -18.3175 -18.3119 -18.3060 -18.3004 -18.2935
   -18.2812 -18.2710 -18.2671 -18.2575 -18.2545 -18.2327 -18.2266 -18.2259
   -18.2214 -18.2150 -18.2137 -18.2053 -18.1954 -18.1855 -18.1781 -18.1761
   -18.1735 -18.1691 -18.1571 -18.1471 -18.1434 -18.1159 -18.1117 -18.1052
   -18.1036 -18.0998 -18.0990 -18.0890 -18.0872 -18.0851 -18.0841 -18.0763
    -9.5073  -9.4092  -9.3306  -9.2974  -9.2099  -9.1090  -9.0533  -9.0495
    -9.0273  -8.9930  -8.9812  -8.9449  -8.8590  -8.8284  -8.8093  -8.7844
    -8.7675  -8.7564  -8.7326  -8.6131  -8.5770  -8.5537  -8.5310  -8.3272
    -5.3743  -5.3554  -5.3511  -5.2747  -5.2626  -5.2569  -5.2507  -5.2425
    -5.2361  -5.2249  -5.2163  -5.2046  -5.1371  -5.1357  -5.1266  -5.1236
    -5.1155  -5.1047  -5.0230  -5.0096  -4.9931  -4.8737  -4.8641  -4.8499
    -4.3342  -4.1260  -3.8180  -3.7807  -3.5797  -3.5335  -3.1981  -2.9632
    -0.7256  -0.7041  -0.6107  -0.5701  -0.5378  -0.5007  -0.4247  -0.3696
    -0.1738  -0.1227  -0.0135   0.1168   0.3324   0.3859   0.4832   0.5117
     0.5535   0.6031   0.6126   0.6444   0.6968   0.7152   0.7654   0.8200
     0.8606   0.9197   0.9529   1.0166   1.0372   1.1275   1.1441   1.1726
     1.2072   1.2221   1.2503   1.2883   1.3176   1.3259   1.3600   1.3847
     1.4023   1.4170   1.4452   1.4753   1.5034   1.5189   1.5387   1.5835
     1.6136   1.6390   1.6550   1.6847   1.6980   1.7414   1.7465   1.7993
     1.8137   1.8390   1.8906   1.9688   1.9897   2.0514   2.1017   2.1299
     2.1574   2.2242   2.2767   2.3394   2.4193   2.4907   2.7678   2.9283

          k = 0.3750-0.1250 0.1250 (132608 PWs)   bands (ev):

   -18.6018 -18.4887 -18.4826 -18.4402 -18.3656 -18.3627 -18.3597 -18.3531
   -18.3511 -18.3435 -18.3329 -18.3175 -18.3119 -18.3060 -18.3004 -18.2935
   -18.2812 -18.2710 -18.2671 -18.2575 -18.2545 -18.2327 -18.2266 -18.2259
   -18.2214 -18.2150 -18.2137 -18.2053 -18.1954 -18.1855 -18.1781 -18.1761
   -18.1735 -18.1691 -18.1571 -18.1471 -18.1434 -18.1159 -18.1117 -18.1052
   -18.1036 -18.0998 -18.0990 -18.0890 -18.0872 -18.0851 -18.0841 -18.0763
    -9.5153  -9.3918  -9.3335  -9.3071  -9.1890  -9.1095  -9.0651  -9.0501
    -9.0430  -9.0080  -8.9791  -8.9224  -8.8766  -8.8423  -8.8002  -8.7777
    -8.7571  -8.7416  -8.7128  -8.6252  -8.6050  -8.5572  -8.5162  -8.3264
    -5.3743  -5.3554  -5.3510  -5.2749  -5.2624  -5.2576  -5.2496  -5.2423
    -5.2364  -5.2253  -5.2162  -5.2046  -5.1375  -5.1355  -5.1273  -5.1226
    -5.1146  -5.1055  -5.0229  -5.0097  -4.9932  -4.8738  -4.8639  -4.8500
    -4.3475  -4.1185  -3.8192  -3.7800  -3.5851  -3.5125  -3.2153  -2.9358
    -0.7523  -0.7001  -0.6590  -0.6116  -0.5475  -0.5106  -0.4231  -0.3242
    -0.1282  -0.0825  -0.0385   0.0088   0.3930   0.4370   0.4683   0.5080
     0.5425   0.5749   0.6542   0.6664   0.7003   0.7314   0.7589   0.8151
     0.8852   0.9206   0.9631   1.0102   1.0558   1.0635   1.0925   1.1316
     1.1730   1.2284   1.2505   1.2822   1.3228   1.3498   1.3670   1.3838
     1.3967   1.4261   1.4568   1.4837   1.5098   1.5288   1.5464   1.5680
     1.6053   1.6292   1.6693   1.6928   1.7396   1.7603   1.7871   1.7989
     1.8613   1.8863   1.9071   1.9353   1.9558   2.0207   2.0819   2.1409
     2.1676   2.2419   2.2938   2.3204   2.4194   2.5133   2.7701   2.8972

          k =-0.3750-0.1250-0.1250 (132608 PWs)   bands (ev):

   -18.6018 -18.4887 -18.4826 -18.4402 -18.3656 -18.3627 -18.3597 -18.3531
   -18.3511 -18.3435 -18.3329 -18.3175 -18.3119 -18.3060 -18.3004 -18.2935
   -18.2812 -18.2710 -18.2671 -18.2575 -18.2545 -18.2327 -18.2266 -18.2259
   -18.2214 -18.2150 -18.2137 -18.2053 -18.1954 -18.1855 -18.1781 -18.1761
   -18.1735 -18.1691 -18.1571 -18.1471 -18.1434 -18.1159 -18.1117 -18.1052
   -18.1036 -18.0998 -18.0990 -18.0890 -18.0872 -18.0851 -18.0841 -18.0763
    -9.5148  -9.3930  -9.3361  -9.3030  -9.1893  -9.1139  -9.0623  -9.0523
    -9.0396  -9.0024  -8.9787  -8.9313  -8.8723  -8.8435  -8.8017  -8.7779
    -8.7588  -8.7408  -8.7101  -8.6223  -8.6082  -8.5581  -8.5153  -8.3265
    -5.3742  -5.3554  -5.3510  -5.2746  -5.2630  -5.2572  -5.2495  -5.2423
    -5.2366  -5.2254  -5.2162  -5.2045  -5.1376  -5.1356  -5.1273  -5.1225
    -5.1146  -5.1055  -5.0229  -5.0097  -4.9932  -4.8737  -4.8639  -4.8501
    -4.3454  -4.1180  -3.8293  -3.7836  -3.5782  -3.5046  -3.2150  -2.9402
    -0.7680  -0.7010  -0.6450  -0.6062  -0.5417  -0.5201  -0.4054  -0.3251
    -0.1357  -0.1103  -0.0331   0.0185   0.3887   0.4502   0.4735   0.5028
     0.5527   0.5720   0.6401   0.6696   0.6967   0.7233   0.7834   0.7984
     0.8936   0.9149   0.9708   1.0004   1.0337   1.0509   1.1061   1.1747
     1.1819   1.2292   1.2638   1.2880   1.2959   1.3160   1.3541   1.3873
     1.4252   1.4437   1.4524   1.4740   1.4990   1.5194   1.5551   1.5835
     1.5970   1.6122   1.6570   1.6938   1.7422   1.7680   1.7921   1.8127
     1.8303   1.8926   1.9281   1.9453   1.9563   2.0117   2.0682   2.1455
     2.1780   2.2377   2.2806   2.3333   2.4242   2.5055   2.7743   2.8964

          k = 0.3750 0.1250-0.1250 (132608 PWs)   bands (ev):

   -18.6018 -18.4887 -18.4826 -18.4402 -18.3656 -18.3627 -18.3597 -18.3531
   -18.3511 -18.3435 -18.3329 -18.3175 -18.3119 -18.3060 -18.3004 -18.2935
   -18.2812 -18.2710 -18.2671 -18.2575 -18.2545 -18.2327 -18.2266 -18.2258
   -18.2214 -18.2150 -18.2137 -18.2053 -18.1954 -18.1855 -18.1781 -18.1761
   -18.1735 -18.1691 -18.1571 -18.1471 -18.1434 -18.1159 -18.1117 -18.1052
   -18.1036 -18.0998 -18.0990 -18.0890 -18.0872 -18.0851 -18.0841 -18.0763
    -9.5151  -9.3929  -9.3299  -9.3100  -9.1895  -9.1075  -9.0672  -9.0530
    -9.0394  -9.0033  -8.9828  -8.9225  -8.8763  -8.8456  -8.7989  -8.7754
    -8.7598  -8.7415  -8.7116  -8.6236  -8.6058  -8.5582  -8.5160  -8.3264
    -5.3742  -5.3554  -5.3510  -5.2748  -5.2627  -5.2575  -5.2496  -5.2422
    -5.2365  -5.2251  -5.2161  -5.2048  -5.1370  -5.1358  -5.1266  -5.1236
    -5.1155  -5.1046  -5.0229  -5.0097  -4.9932  -4.8737  -4.8640  -4.8501
    -4.3462  -4.1202  -3.8180  -3.7828  -3.5809  -3.5159  -3.2124  -2.9374
    -0.7533  -0.6944  -0.6580  -0.6093  -0.5482  -0.5232  -0.4199  -0.3352
    -0.1364  -0.0957  -0.0099   0.0326   0.3873   0.4233   0.4612   0.5074
     0.5422   0.5808   0.6475   0.6755   0.7080   0.7354   0.7649   0.8103
     0.8808   0.9161   0.9641   0.9987   1.0434   1.0697   1.0917   1.1458
     1.1741   1.2268   1.2497   1.2763   1.3147   1.3399   1.3761   1.3918
     1.4048   1.4265   1.4530   1.4920   1.5095   1.5261   1.5453   1.5742
     1.5945   1.6346   1.6570   1.6856   1.7525   1.7680   1.7917   1.8137
     1.8452   1.8651   1.9345   1.9482   1.9636   2.0077   2.0689   2.1267
     2.1600   2.2538   2.2807   2.3212   2.4480   2.4938   2.7702   2.9061

          k =-0.3750 0.1250 0.1250 (132608 PWs)   bands (ev):

   -18.6018 -18.4887 -18.4826 -18.4402 -18.3656 -18.3627 -18.3597 -18.3531
   -18.3511 -18.3435 -18.3329 -18.3175 -18.3119 -18.3060 -18.3004 -18.2935
   -18.2812 -18.2710 -18.2671 -18.2575 -18.2545 -18.2327 -18.2266 -18.2258
   -18.2214 -18.2150 -18.2137 -18.2053 -18.1954 -18.1855 -18.1781 -18.1761
   -18.1735 -18.1691 -18.1571 -18.1471 -18.1434 -18.1159 -18.1117 -18.1052
   -18.1036 -18.0998 -18.0990 -18.0890 -18.0872 -18.0851 -18.0841 -18.0763
    -9.5149  -9.3915  -9.3399  -9.2998  -9.1912  -9.1143  -9.0590  -9.0535
    -9.0396  -9.0001  -8.9808  -8.9311  -8.8775  -8.8406  -8.7995  -8.7784
    -8.7566  -8.7415  -8.7128  -8.6206  -8.6090  -8.5579  -8.5156  -8.3265
    -5.3743  -5.3554  -5.3510  -5.2747  -5.2630  -5.2572  -5.2495  -5.2421
    -5.2366  -5.2251  -5.2161  -5.2048  -5.1371  -5.1358  -5.1266  -5.1236
    -5.1155  -5.1046  -5.0230  -5.0097  -4.9932  -4.8737  -4.8639  -4.8501
    -4.3457  -4.1172  -3.8342  -3.7766  -3.5844  -3.5009  -3.2171  -2.9375
    -0.7659  -0.6983  -0.6493  -0.6013  -0.5544  -0.5239  -0.4109  -0.3440
    -0.1306  -0.0684  -0.0137   0.0243   0.3850   0.4122   0.4588   0.5111
     0.5307   0.5731   0.6466   0.6792   0.7099   0.7415   0.7683   0.7972
     0.8990   0.9100   0.9530   1.0025   1.0462   1.0585   1.1026   1.1659
     1.1809   1.2266   1.2499   1.2768   1.3112   1.3413   1.3569   1.3937
     1.4101   1.4268   1.4460   1.4776   1.5046   1.5204   1.5416   1.5853
     1.6193   1.6321   1.6561   1.6956   1.7437   1.7535   1.7942   1.8070
     1.8474   1.8736   1.9314   1.9499   1.9711   2.0215   2.0748   2.1131
     2.1642   2.2306   2.2810   2.3209   2.4311   2.5250   2.7770   2.9011

          k =-0.1250 0.3750 0.1250 (132608 PWs)   bands (ev):

   -18.6018 -18.4887 -18.4826 -18.4402 -18.3656 -18.3627 -18.3597 -18.3531
   -18.3511 -18.3435 -18.3329 -18.3175 -18.3119 -18.3060 -18.3004 -18.2935
   -18.2812 -18.2710 -18.2671 -18.2575 -18.2545 -18.2327 -18.2266 -18.2258
   -18.2214 -18.2150 -18.2137 -18.2053 -18.1954 -18.1855 -18.1781 -18.1761
   -18.1735 -18.1691 -18.1571 -18.1471 -18.1434 -18.1159 -18.1117 -18.1052
   -18.1036 -18.0998 -18.0990 -18.0890 -18.0872 -18.0851 -18.0841 -18.0763
    -9.5077  -9.3941  -9.3654  -9.2714  -9.2150  -9.1047  -9.0588  -9.0515
    -9.0264  -8.9988  -8.9618  -8.9432  -8.8872  -8.8325  -8.8047  -8.7993
    -8.7636  -8.7483  -8.6924  -8.6192  -8.6095  -8.5512  -8.5176  -8.3277
    -5.3743  -5.3553  -5.3510  -5.2746  -5.2624  -5.2573  -5.2501  -5.2424
    -5.2370  -5.2247  -5.2162  -5.2044  -5.1370  -5.1363  -5.1274  -5.1227
    -5.1158  -5.1039  -5.0230  -5.0098  -4.9933  -4.8738  -4.8636  -4.8502
    -4.3337  -4.0934  -3.8878  -3.7750  -3.5411  -3.5048  -3.2476  -2.9628
    -0.7311  -0.6983  -0.6121  -0.5722  -0.5095  -0.4617  -0.4194  -0.3517
    -0.2059  -0.1316  -0.0419   0.0700   0.3712   0.4300   0.4631   0.5133
     0.5772   0.6104   0.6405   0.6801   0.7047   0.7241   0.7353   0.7816
     0.8691   0.9378   0.9560   1.0053   1.0513   1.0931   1.1381   1.1438
     1.1805   1.2225   1.2383   1.2525   1.2983   1.3259   1.3430   1.3651
     1.3954   1.4214   1.4465   1.4663   1.5142   1.5204   1.5584   1.5928
     1.6179   1.6522   1.6791   1.7129   1.7371   1.7676   1.7781   1.7999
     1.8306   1.8686   1.8983   1.9408   1.9727   2.0223   2.0743   2.1092
     2.1611   2.1837   2.2466   2.3581   2.4276   2.5408   2.6936   2.8944

          k =-0.1250-0.3750-0.1250 (132608 PWs)   bands (ev):

   -18.6018 -18.4887 -18.4826 -18.4402 -18.3656 -18.3627 -18.3597 -18.3531
   -18.3511 -18.3435 -18.3329 -18.3175 -18.3119 -18.3060 -18.3004 -18.2935
   -18.2812 -18.2710 -18.2671 -18.2575 -18.2545 -18.2327 -18.2266 -18.2258
   -18.2214 -18.2150 -18.2137 -18.2053 -18.1954 -18.1855 -18.1781 -18.1761
   -18.1735 -18.1691 -18.1571 -18.1471 -18.1434 -18.1159 -18.1117 -18.1052
   -18.1036 -18.0998 -18.0990 -18.0890 -18.0872 -18.0851 -18.0841 -18.0763
    -9.5076  -9.3959  -9.3636  -9.2715  -9.2155  -9.0999  -9.0645  -9.0517
    -9.0264  -8.9999  -8.9622  -8.9397  -8.8857  -8.8309  -8.8121  -8.7971
    -8.7641  -8.7470  -8.6912  -8.6188  -8.6102  -8.5518  -8.5172  -8.3277
    -5.3743  -5.3553  -5.3510  -5.2745  -5.2625  -5.2571  -5.2500  -5.2426
    -5.2370  -5.2250  -5.2163  -5.2041  -5.1378  -5.1358  -5.1278  -5.1220
    -5.1151  -5.1047  -5.0229  -5.0099  -4.9933  -4.8737  -4.8636  -4.8502
    -4.3332  -4.0953  -3.8854  -3.7763  -3.5300  -3.5166  -3.2442  -2.9658
    -0.7363  -0.6827  -0.6053  -0.5672  -0.5108  -0.4547  -0.4447  -0.3622
    -0.1848  -0.1363  -0.0608   0.0641   0.3791   0.4317   0.4773   0.5134
     0.5860   0.6093   0.6338   0.6646   0.6905   0.7272   0.7416   0.8073
     0.8526   0.9418   0.9685   1.0213   1.0520   1.0769   1.1038   1.1364
     1.1886   1.2134   1.2425   1.2865   1.3088   1.3168   1.3594   1.3676
     1.3867   1.4051   1.4608   1.4732   1.4942   1.5400   1.5517   1.5931
     1.6054   1.6574   1.6644   1.7054   1.7351   1.7540   1.7917   1.8099
     1.8308   1.8594   1.8927   1.9373   1.9694   2.0197   2.0660   2.1452
     2.1677   2.1938   2.2485   2.3492   2.4439   2.5267   2.6833   2.8838

          k = 0.1250 0.3750-0.1250 (132608 PWs)   bands (ev):

   -18.6018 -18.4887 -18.4826 -18.4402 -18.3656 -18.3627 -18.3597 -18.3531
   -18.3511 -18.3435 -18.3329 -18.3175 -18.3119 -18.3060 -18.3004 -18.2935
   -18.2812 -18.2710 -18.2671 -18.2575 -18.2545 -18.2327 -18.2266 -18.2258
   -18.2214 -18.2150 -18.2137 -18.2053 -18.1954 -18.1855 -18.1781 -18.1761
   -18.1735 -18.1691 -18.1571 -18.1471 -18.1434 -18.1159 -18.1117 -18.1052
   -18.1036 -18.0998 -18.0990 -18.0890 -18.0872 -18.0851 -18.0841 -18.0763
    -9.5080  -9.3956  -9.3612  -9.2768  -9.2130  -9.0957  -9.0621  -9.0530
    -9.0296  -9.0071  -8.9640  -8.9246  -8.8968  -8.8285  -8.8125  -8.7939
    -8.7630  -8.7484  -8.6932  -8.6210  -8.6069  -8.5517  -8.5179  -8.3277
    -5.3742  -5.3553  -5.3510  -5.2746  -5.2618  -5.2579  -5.2502  -5.2425
    -5.2368  -5.2248  -5.2161  -5.2044  -5.1371  -5.1363  -5.1274  -5.1228
    -5.1158  -5.1040  -5.0229  -5.0098  -4.9934  -4.8738  -4.8637  -4.8501
    -4.3356  -4.0904  -3.8872  -3.7755  -3.5355  -3.5107  -3.2509  -2.9605
    -0.7291  -0.6919  -0.6156  -0.5660  -0.5076  -0.4559  -0.4274  -0.3554
    -0.2041  -0.1441  -0.0637   0.0694   0.3872   0.4494   0.4709   0.5154
     0.5706   0.6007   0.6449   0.6814   0.6929   0.7323   0.7414   0.8017
     0.8616   0.9331   0.9649   1.0014   1.0405   1.0872   1.1342   1.1479
     1.1760   1.2081   1.2193   1.2541   1.3012   1.3248   1.3494   1.3677
     1.3826   1.4230   1.4440   1.4916   1.4988   1.5357   1.5727   1.6091
     1.6244   1.6443   1.6720   1.7123   1.7314   1.7643   1.7923   1.8003
     1.8454   1.8551   1.8842   1.9352   1.9758   2.0226   2.0510   2.1190
     2.1661   2.1814   2.2417   2.3598   2.4656   2.5142   2.6781   2.9054

          k = 0.1250-0.3750 0.1250 (132608 PWs)   bands (ev):

   -18.6018 -18.4887 -18.4826 -18.4402 -18.3656 -18.3627 -18.3597 -18.3531
   -18.3511 -18.3435 -18.3329 -18.3175 -18.3119 -18.3060 -18.3004 -18.2935
   -18.2812 -18.2710 -18.2671 -18.2575 -18.2545 -18.2327 -18.2266 -18.2258
   -18.2214 -18.2150 -18.2137 -18.2053 -18.1954 -18.1855 -18.1781 -18.1761
   -18.1735 -18.1691 -18.1571 -18.1471 -18.1434 -18.1159 -18.1117 -18.1052
   -18.1036 -18.0998 -18.0990 -18.0890 -18.0872 -18.0851 -18.0841 -18.0763
    -9.5082  -9.3940  -9.3630  -9.2764  -9.2121  -9.0974  -9.0602  -9.0538
    -9.0278  -9.0138  -8.9602  -8.9231  -8.8953  -8.8354  -8.8023  -8.7993
    -8.7632  -8.7472  -8.6947  -8.6217  -8.6064  -8.5511  -8.5181  -8.3277
    -5.3743  -5.3553  -5.3510  -5.2747  -5.2617  -5.2578  -5.2502  -5.2426
    -5.2367  -5.2250  -5.2162  -5.2042  -5.1378  -5.1358  -5.1278  -5.1221
    -5.1151  -5.1047  -5.0229  -5.0098  -4.9933  -4.8738  -4.8636  -4.8501
    -4.3367  -4.0895  -3.8855  -3.7747  -3.5439  -3.5032  -3.2540  -2.9588
    -0.7340  -0.6814  -0.6252  -0.5462  -0.5167  -0.4694  -0.4082  -0.3607
    -0.2266  -0.1352  -0.0583   0.0734   0.3891   0.4382   0.4763   0.5148
     0.5646   0.6080   0.6479   0.6656   0.6990   0.7244   0.7488   0.7930
     0.8680   0.9358   0.9688   1.0263   1.0334   1.0771   1.1030   1.1367
     1.1968   1.2133   1.2354   1.2721   1.2970   1.3191   1.3457   1.3687
     1.3974   1.4302   1.4563   1.4730   1.4975   1.5215   1.5647   1.5991
     1.6219   1.6464   1.6811   1.7125   1.7332   1.7621   1.7656   1.7989
     1.8455   1.8602   1.8832   1.9452   1.9822   2.0152   2.0588   2.1184
     2.1612   2.2113   2.2478   2.3554   2.4287   2.5421   2.6885   2.8781

          k =-0.1250-0.3750 0.3750 (132616 PWs)   bands (ev):

   -18.6018 -18.4887 -18.4826 -18.4402 -18.3656 -18.3627 -18.3597 -18.3531
   -18.3511 -18.3435 -18.3329 -18.3175 -18.3119 -18.3060 -18.3004 -18.2935
   -18.2812 -18.2710 -18.2671 -18.2575 -18.2545 -18.2327 -18.2266 -18.2259
   -18.2214 -18.2150 -18.2137 -18.2053 -18.1954 -18.1855 -18.1781 -18.1761
   -18.1735 -18.1692 -18.1571 -18.1471 -18.1434 -18.1159 -18.1117 -18.1052
   -18.1036 -18.0998 -18.0990 -18.0890 -18.0872 -18.0851 -18.0841 -18.0763
    -9.5001  -9.3952  -9.3394  -9.3087  -9.2306  -9.0828  -9.0668  -9.0475
    -9.0310  -9.0092  -8.9611  -8.9251  -8.8981  -8.8244  -8.8125  -8.7857
    -8.7625  -8.7573  -8.6948  -8.6169  -8.5806  -8.5533  -8.5400  -8.3283
    -5.3742  -5.3553  -5.3510  -5.2746  -5.2622  -5.2567  -5.2511  -5.2426
    -5.2357  -5.2253  -5.2163  -5.2047  -5.1372  -5.1356  -5.1267  -5.1235
    -5.1155  -5.1048  -5.0230  -5.0097  -4.9932  -4.8736  -4.8639  -4.8499
    -4.2118  -4.0040  -3.9461  -3.8193  -3.5856  -3.4725  -3.3794  -3.1603
    -0.6421  -0.5648  -0.5483  -0.4876  -0.4054  -0.2893  -0.2503  -0.1825
    -0.0509  -0.0337   0.0886   0.1343   0.2958   0.3829   0.4560   0.4922
     0.5342   0.5570   0.5899   0.6340   0.6567   0.6838   0.7150   0.7536
     0.7858   0.8453   0.8785   0.8966   0.9363   0.9955   1.0607   1.1090
     1.1404   1.1727   1.1787   1.2387   1.2859   1.3067   1.3412   1.3755
     1.3961   1.4158   1.4684   1.4830   1.5252   1.5614   1.5691   1.6051
     1.6223   1.6538   1.6709   1.7083   1.7372   1.7488   1.7577   1.8102
     1.8216   1.8621   1.8834   1.9636   1.9691   2.0034   2.0181   2.0607
     2.0998   2.1572   2.1736   2.2508   2.3088   2.4162   2.5086   2.6811

          k =-0.1250 0.3750-0.3750 (132616 PWs)   bands (ev):

   -18.6018 -18.4887 -18.4826 -18.4402 -18.3656 -18.3627 -18.3597 -18.3531
   -18.3511 -18.3435 -18.3329 -18.3175 -18.3119 -18.3060 -18.3004 -18.2935
   -18.2812 -18.2710 -18.2671 -18.2575 -18.2545 -18.2327 -18.2266 -18.2259
   -18.2214 -18.2150 -18.2137 -18.2053 -18.1954 -18.1855 -18.1781 -18.1761
   -18.1735 -18.1692 -18.1571 -18.1471 -18.1434 -18.1159 -18.1117 -18.1052
   -18.1036 -18.0998 -18.0990 -18.0890 -18.0872 -18.0851 -18.0841 -18.0763
    -9.5004  -9.3944  -9.3405  -9.3085  -9.2293  -9.0891  -9.0618  -9.0455
    -9.0327  -9.0118  -8.9597  -8.9248  -8.8953  -8.8289  -8.8088  -8.7880
    -8.7623  -8.7553  -8.6964  -8.6166  -8.5809  -8.5525  -8.5404  -8.3284
    -5.3742  -5.3553  -5.3510  -5.2747  -5.2623  -5.2565  -5.2511  -5.2427
    -5.2356  -5.2255  -5.2164  -5.2045  -5.1377  -5.1353  -5.1273  -5.1226
    -5.1147  -5.1057  -5.0230  -5.0097  -4.9932  -4.8737  -4.8638  -4.8499
    -4.2138  -4.0049  -3.9448  -3.8096  -3.5971  -3.4730  -3.3773  -3.1588
    -0.6526  -0.5696  -0.5347  -0.4794  -0.4045  -0.2795  -0.2492  -0.1915
    -0.0522  -0.0362   0.0785   0.1289   0.2946   0.3918   0.4478   0.4909
     0.5287   0.5733   0.5943   0.6198   0.6695   0.6796   0.7066   0.7575
     0.7812   0.8384   0.8794   0.9146   0.9444   0.9950   1.0662   1.1039
     1.1294   1.1701   1.1930   1.2391   1.2728   1.3090   1.3395   1.3757
     1.4012   1.4368   1.4574   1.5022   1.5257   1.5502   1.5610   1.5955
     1.6247   1.6429   1.6780   1.7199   1.7347   1.7505   1.7626   1.7857
     1.8094   1.8585   1.8767   1.9570   1.9854   1.9995   2.0318   2.0615
     2.1274   2.1455   2.1699   2.2613   2.3005   2.4205   2.5106   2.6683

          k = 0.1250-0.3750-0.3750 (132616 PWs)   bands (ev):

   -18.6018 -18.4887 -18.4826 -18.4402 -18.3656 -18.3627 -18.3597 -18.3531
   -18.3511 -18.3435 -18.3329 -18.3175 -18.3119 -18.3060 -18.3004 -18.2935
   -18.2812 -18.2710 -18.2671 -18.2575 -18.2545 -18.2327 -18.2266 -18.2259
   -18.2214 -18.2150 -18.2137 -18.2053 -18.1954 -18.1855 -18.1781 -18.1761
   -18.1735 -18.1692 -18.1571 -18.1471 -18.1434 -18.1159 -18.1117 -18.1052
   -18.1036 -18.0998 -18.0990 -18.0890 -18.0872 -18.0851 -18.0841 -18.0763
    -9.4998  -9.3945  -9.3474  -9.2990  -9.2323  -9.0998  -9.0563  -9.0452
    -9.0236  -9.0032  -8.9666  -8.9383  -8.8882  -8.8263  -8.8117  -8.7865
    -8.7639  -8.7563  -8.6942  -8.6156  -8.5828  -8.5534  -8.5388  -8.3284
    -5.3743  -5.3553  -5.3510  -5.2745  -5.2628  -5.2562  -5.2511  -5.2425
    -5.2358  -5.2252  -5.2163  -5.2047  -5.1371  -5.1356  -5.1266  -5.1235
    -5.1155  -5.1048  -5.0231  -5.0097  -4.9932  -4.8736  -4.8638  -4.8500
    -4.2046  -4.0152  -3.9684  -3.7514  -3.6563  -3.4550  -3.3577  -3.1703
    -0.6570  -0.5606  -0.5480  -0.4843  -0.4071  -0.3030  -0.2665  -0.1283
    -0.0636   0.0044   0.0893   0.1604   0.2477   0.3498   0.4332   0.4991
     0.5296   0.5699   0.5859   0.6332   0.6530   0.6869   0.7300   0.7527
     0.7817   0.8320   0.8652   0.9013   0.9598   1.0009   1.0703   1.1147
     1.1372   1.1673   1.1952   1.2567   1.2696   1.3268   1.3408   1.3681
     1.3880   1.4264   1.4548   1.4891   1.5283   1.5427   1.5742   1.5860
     1.6172   1.6413   1.6830   1.7134   1.7324   1.7415   1.7650   1.8097
     1.8236   1.8505   1.8899   1.9392   1.9676   2.0075   2.0645   2.0774
     2.0884   2.1552   2.1758   2.2477   2.2959   2.3981   2.5354   2.6764

          k = 0.3750 0.1250-0.3750 (132616 PWs)   bands (ev):

   -18.6018 -18.4887 -18.4826 -18.4402 -18.3656 -18.3627 -18.3597 -18.3531
   -18.3511 -18.3435 -18.3329 -18.3175 -18.3119 -18.3060 -18.3004 -18.2935
   -18.2812 -18.2710 -18.2671 -18.2575 -18.2545 -18.2327 -18.2266 -18.2259
   -18.2214 -18.2150 -18.2137 -18.2053 -18.1954 -18.1855 -18.1781 -18.1761
   -18.1735 -18.1691 -18.1571 -18.1471 -18.1434 -18.1159 -18.1117 -18.1052
   -18.1036 -18.0998 -18.0990 -18.0890 -18.0872 -18.0851 -18.0841 -18.0763
    -9.5048  -9.3920  -9.3405  -9.3084  -9.2036  -9.1116  -9.0660  -9.0544
    -9.0337  -8.9995  -8.9821  -8.9357  -8.8598  -8.8361  -8.7991  -8.7825
    -8.7604  -8.7425  -8.7168  -8.6231  -8.5780  -8.5595  -8.5343  -8.3279
    -5.3741  -5.3554  -5.3510  -5.2745  -5.2618  -5.2579  -5.2506  -5.2428
    -5.2360  -5.2252  -5.2160  -5.2046  -5.1381  -5.1350  -5.1272  -5.1225
    -5.1163  -5.1038  -5.0230  -5.0095  -4.9933  -4.8737  -4.8643  -4.8499
    -4.2201  -4.0405  -3.9510  -3.7522  -3.6450  -3.4356  -3.3600  -3.1455
    -0.7136  -0.6529  -0.5845  -0.4186  -0.3740  -0.3334  -0.2503  -0.1063
    -0.0725  -0.0159   0.1014   0.1758   0.2875   0.3488   0.4156   0.4683
     0.5191   0.5500   0.5776   0.6052   0.6272   0.6805   0.7125   0.7353
     0.8234   0.8780   0.9133   0.9536   0.9827   1.0040   1.0355   1.1050
     1.1323   1.1601   1.1873   1.2395   1.2584   1.3007   1.3238   1.3846
     1.3971   1.4350   1.4776   1.5038   1.5150   1.5483   1.5708   1.5912
     1.6152   1.6463   1.6875   1.7192   1.7435   1.7718   1.7886   1.7992
     1.8375   1.8608   1.8680   1.9250   1.9580   1.9925   2.0441   2.0774
     2.1055   2.1668   2.2068   2.2967   2.3420   2.4628   2.5094   2.6475

          k =-0.3750-0.1250-0.3750 (132616 PWs)   bands (ev):

   -18.6018 -18.4887 -18.4826 -18.4402 -18.3656 -18.3627 -18.3597 -18.3531
   -18.3511 -18.3435 -18.3329 -18.3175 -18.3119 -18.3060 -18.3004 -18.2935
   -18.2812 -18.2710 -18.2671 -18.2575 -18.2545 -18.2327 -18.2266 -18.2259
   -18.2214 -18.2150 -18.2137 -18.2053 -18.1954 -18.1855 -18.1781 -18.1761
   -18.1735 -18.1691 -18.1571 -18.1471 -18.1434 -18.1159 -18.1117 -18.1052
   -18.1036 -18.0998 -18.0990 -18.0890 -18.0872 -18.0851 -18.0841 -18.0763
    -9.5045  -9.3924  -9.3446  -9.3032  -9.2034  -9.1178  -9.0601  -9.0555
    -9.0330  -8.9978  -8.9774  -8.9452  -8.8560  -8.8345  -8.8000  -8.7869
    -8.7601  -8.7413  -8.7152  -8.6226  -8.5807  -8.5589  -8.5331  -8.3279
    -5.3742  -5.3554  -5.3510  -5.2743  -5.2623  -5.2574  -5.2505  -5.2429
    -5.2361  -5.2254  -5.2161  -5.2043  -5.1385  -5.1350  -5.1277  -5.1217
    -5.1155  -5.1045  -5.0230  -5.0096  -4.9933  -4.8737  -4.8643  -4.8499
    -4.2174  -4.0431  -3.9434  -3.7884  -3.6113  -3.4344  -3.3605  -3.1517
    -0.7177  -0.6591  -0.5870  -0.4178  -0.3903  -0.2720  -0.2028  -0.1461
    -0.0784  -0.0012   0.0362   0.1095   0.3358   0.3629   0.4473   0.4783
     0.5157   0.5473   0.5747   0.6189   0.6409   0.6523   0.7034   0.7287
     0.8229   0.8598   0.9140   0.9440   1.0057   1.0224   1.0496   1.0995
     1.1395   1.1685   1.1792   1.2016   1.2520   1.3014   1.3479   1.3797
     1.4222   1.4404   1.4812   1.5071   1.5136   1.5243   1.5624   1.5788
     1.6149   1.6527   1.6743   1.7133   1.7431   1.7745   1.7839   1.8101
     1.8264   1.8563   1.8911   1.9175   1.9565   1.9882   2.0367   2.1068
     2.1122   2.1711   2.2067   2.2830   2.3357   2.4851   2.5076   2.6303

          k = 0.3750-0.1250 0.3750 (132616 PWs)   bands (ev):

   -18.6018 -18.4887 -18.4826 -18.4402 -18.3656 -18.3627 -18.3597 -18.3531
   -18.3511 -18.3435 -18.3329 -18.3175 -18.3119 -18.3060 -18.3004 -18.2935
   -18.2812 -18.2710 -18.2671 -18.2575 -18.2545 -18.2327 -18.2266 -18.2259
   -18.2214 -18.2150 -18.2137 -18.2053 -18.1954 -18.1855 -18.1781 -18.1761
   -18.1735 -18.1691 -18.1571 -18.1471 -18.1434 -18.1159 -18.1117 -18.1052
   -18.1036 -18.0998 -18.0990 -18.0890 -18.0872 -18.0851 -18.0841 -18.0763
    -9.5050  -9.3912  -9.3414  -9.3080  -9.2019  -9.1161  -9.0650  -9.0486
    -9.0364  -9.0061  -8.9772  -8.9361  -8.8569  -8.8363  -8.7989  -8.7856
    -8.7583  -8.7419  -8.7186  -8.6233  -8.5791  -8.5574  -8.5349  -8.3279
    -5.3742  -5.3554  -5.3510  -5.2745  -5.2616  -5.2579  -5.2506  -5.2430
    -5.2359  -5.2253  -5.2161  -5.2044  -5.1384  -5.1350  -5.1277  -5.1218
    -5.1155  -5.1045  -5.0230  -5.0095  -4.9933  -4.8738  -4.8642  -4.8499
    -4.2224  -4.0416  -3.9433  -3.7535  -3.6485  -3.4324  -3.3650  -3.1432
    -0.7114  -0.6647  -0.5830  -0.4331  -0.3842  -0.2809  -0.1949  -0.1346
    -0.0765  -0.0100   0.0446   0.0988   0.3386   0.3834   0.4222   0.4734
     0.5073   0.5443   0.5711   0.6199   0.6477   0.6672   0.6988   0.7469
     0.8172   0.8605   0.9189   0.9418   1.0076   1.0307   1.0466   1.0936
     1.1136   1.1607   1.1859   1.2175   1.2793   1.2993   1.3251   1.3826
     1.3977   1.4434   1.4491   1.4929   1.5239   1.5496   1.5655   1.6077
     1.6377   1.6483   1.6885   1.7078   1.7350   1.7666   1.7828   1.8079
     1.8342   1.8575   1.8897   1.9098   1.9366   1.9920   2.0321   2.1008
     2.1407   2.1615   2.2150   2.2851   2.3038   2.4804   2.5179   2.6433

          k =-0.3750 0.1250 0.3750 (132616 PWs)   bands (ev):

   -18.6018 -18.4887 -18.4826 -18.4402 -18.3656 -18.3627 -18.3597 -18.3531
   -18.3511 -18.3435 -18.3329 -18.3175 -18.3119 -18.3060 -18.3004 -18.2935
   -18.2812 -18.2710 -18.2671 -18.2575 -18.2545 -18.2327 -18.2266 -18.2259
   -18.2214 -18.2150 -18.2137 -18.2053 -18.1954 -18.1855 -18.1781 -18.1761
   -18.1735 -18.1691 -18.1571 -18.1471 -18.1434 -18.1159 -18.1117 -18.1052
   -18.1036 -18.0998 -18.0990 -18.0890 -18.0872 -18.0851 -18.0841 -18.0763
    -9.5046  -9.3910  -9.3471  -9.3012  -9.2039  -9.1212  -9.0598  -9.0493
    -9.0336  -8.9976  -8.9803  -8.9450  -8.8566  -8.8359  -8.7996  -8.7850
    -8.7575  -8.7421  -8.7184  -8.6215  -8.5796  -8.5601  -8.5331  -8.3279
    -5.3742  -5.3553  -5.3510  -5.2744  -5.2624  -5.2573  -5.2506  -5.2428
    -5.2361  -5.2251  -5.2160  -5.2046  -5.1381  -5.1350  -5.1272  -5.1225
    -5.1163  -5.1038  -5.0230  -5.0095  -4.9933  -4.8737  -4.8643  -4.8500
    -4.2171  -4.0425  -3.9506  -3.7689  -3.6275  -3.4402  -3.3536  -3.1492
    -0.7162  -0.6696  -0.5793  -0.4225  -0.3583  -0.3302  -0.2400  -0.0984
    -0.0687  -0.0208   0.1057   0.1745   0.2745   0.3437   0.4096   0.4431
     0.5247   0.5567   0.5732   0.6050   0.6488   0.6800   0.7151   0.7324
     0.8088   0.8751   0.9197   0.9576   0.9731   1.0007   1.0461   1.1005
     1.1431   1.1688   1.2049   1.2277   1.2526   1.2907   1.3424   1.3659
     1.4240   1.4412   1.4725   1.4892   1.5144   1.5329   1.5553   1.6009
     1.6427   1.6530   1.6789   1.7038   1.7354   1.7707   1.7881   1.8072
     1.8391   1.8481   1.8800   1.9194   1.9563   2.0037   2.0469   2.0729
     2.1125   2.1731   2.1961   2.2784   2.3433   2.4633   2.5263   2.6501

          k = 0.3750-0.3750 0.1250 (132616 PWs)   bands (ev):

   -18.6018 -18.4887 -18.4826 -18.4402 -18.3656 -18.3627 -18.3597 -18.3531
   -18.3511 -18.3435 -18.3329 -18.3175 -18.3119 -18.3060 -18.3004 -18.2935
   -18.2812 -18.2710 -18.2671 -18.2575 -18.2545 -18.2327 -18.2266 -18.2258
   -18.2214 -18.2150 -18.2137 -18.2053 -18.1954 -18.1855 -18.1781 -18.1761
   -18.1735 -18.1691 -18.1571 -18.1471 -18.1434 -18.1159 -18.1117 -18.1052
   -18.1036 -18.0998 -18.0990 -18.0890 -18.0872 -18.0851 -18.0841 -18.0763
    -9.5053  -9.3860  -9.3595  -9.2793  -9.2198  -9.1243  -9.0613  -9.0502
    -9.0296  -9.0018  -8.9698  -8.9267  -8.8855  -8.8513  -8.8013  -8.7821
    -8.7455  -8.7278  -8.7043  -8.6255  -8.6076  -8.5559  -8.5237  -8.3280
    -5.3743  -5.3553  -5.3510  -5.2746  -5.2618  -5.2579  -5.2499  -5.2425
    -5.2367  -5.2254  -5.2159  -5.2045  -5.1376  -5.1354  -5.1272  -5.1227
    -5.1147  -5.1055  -5.0229  -5.0098  -4.9933  -4.8739  -4.8636  -4.8503
    -4.2217  -4.0052  -3.9666  -3.7692  -3.6291  -3.4231  -3.4044  -3.1416
    -0.7081  -0.6572  -0.5540  -0.4008  -0.3813  -0.3169  -0.2175  -0.1569
    -0.0746  -0.0436   0.0866   0.1162   0.3522   0.3706   0.4612   0.4788
     0.5155   0.5418   0.5911   0.6177   0.6330   0.6632   0.7164   0.7402
     0.8034   0.8847   0.9200   0.9634   0.9918   1.0146   1.0450   1.0793
     1.0980   1.1478   1.1895   1.2095   1.2755   1.2898   1.3224   1.3509
     1.3738   1.4046   1.4465   1.4926   1.5314   1.5577   1.5878   1.5961
     1.6422   1.6700   1.7045   1.7376   1.7467   1.7660   1.7905   1.8054
     1.8528   1.8671   1.8945   1.9280   1.9712   2.0070   2.0270   2.0920
     2.1026   2.1411   2.2043   2.2991   2.3101   2.4173   2.4791   2.6147

          k =-0.3750-0.3750-0.1250 (132616 PWs)   bands (ev):

   -18.6018 -18.4887 -18.4826 -18.4402 -18.3656 -18.3627 -18.3597 -18.3531
   -18.3511 -18.3435 -18.3329 -18.3175 -18.3119 -18.3060 -18.3004 -18.2935
   -18.2812 -18.2710 -18.2671 -18.2575 -18.2545 -18.2327 -18.2266 -18.2259
   -18.2214 -18.2150 -18.2137 -18.2053 -18.1954 -18.1855 -18.1781 -18.1761
   -18.1735 -18.1691 -18.1571 -18.1471 -18.1434 -18.1159 -18.1117 -18.1052
   -18.1036 -18.0998 -18.0990 -18.0890 -18.0872 -18.0851 -18.0841 -18.0763
    -9.5047  -9.3883  -9.3596  -9.2750  -9.2225  -9.1273  -9.0591  -9.0517
    -9.0252  -8.9950  -8.9722  -8.9380  -8.8796  -8.8515  -8.8033  -8.7825
    -8.7444  -8.7310  -8.7002  -8.6197  -8.6138  -8.5570  -8.5225  -8.3280
    -5.3743  -5.3553  -5.3510  -5.2743  -5.2625  -5.2574  -5.2497  -5.2425
    -5.2369  -5.2255  -5.2159  -5.2044  -5.1376  -5.1354  -5.1273  -5.1226
    -5.1147  -5.1055  -5.0229  -5.0099  -4.9933  -4.8738  -4.8636  -4.8504
    -4.2156  -4.0069  -3.9763  -3.7725  -3.6245  -3.4303  -3.3825  -3.1524
    -0.7114  -0.6626  -0.5519  -0.4081  -0.3579  -0.3013  -0.2331  -0.1710
    -0.0602  -0.0244   0.0549   0.1002   0.3615   0.3952   0.4442   0.4922
     0.5084   0.5434   0.5747   0.6253   0.6424   0.6718   0.6969   0.7542
     0.7935   0.8747   0.9237   0.9692   0.9854   1.0232   1.0339   1.0711
     1.1066   1.1425   1.1835   1.2336   1.2819   1.3012   1.3240   1.3482
     1.3859   1.4088   1.4315   1.4711   1.5120   1.5640   1.5871   1.6040
     1.6408   1.6666   1.7023   1.7363   1.7524   1.7757   1.7887   1.8128
     1.8417   1.8793   1.8914   1.9094   1.9775   2.0119   2.0335   2.0504
     2.1258   2.1652   2.2103   2.2672   2.3370   2.3949   2.4888   2.6172

          k = 0.3750 0.3750-0.1250 (132616 PWs)   bands (ev):

   -18.6018 -18.4887 -18.4826 -18.4402 -18.3656 -18.3627 -18.3597 -18.3531
   -18.3511 -18.3435 -18.3329 -18.3175 -18.3119 -18.3060 -18.3004 -18.2935
   -18.2812 -18.2710 -18.2671 -18.2575 -18.2545 -18.2327 -18.2266 -18.2259
   -18.2214 -18.2150 -18.2137 -18.2053 -18.1954 -18.1855 -18.1781 -18.1761
   -18.1735 -18.1691 -18.1571 -18.1471 -18.1434 -18.1159 -18.1117 -18.1052
   -18.1036 -18.0998 -18.0990 -18.0890 -18.0872 -18.0851 -18.0841 -18.0763
    -9.5051  -9.3882  -9.3570  -9.2799  -9.2206  -9.1239  -9.0608  -9.0501
    -9.0292  -8.9982  -8.9727  -8.9283  -8.8868  -8.8496  -8.8028  -8.7805
    -8.7440  -8.7326  -8.7007  -8.6250  -8.6080  -8.5567  -8.5235  -8.3279
    -5.3742  -5.3553  -5.3510  -5.2745  -5.2619  -5.2579  -5.2500  -5.2423
    -5.2368  -5.2252  -5.2158  -5.2047  -5.1370  -5.1357  -5.1266  -5.1237
    -5.1155  -5.1047  -5.0229  -5.0098  -4.9933  -4.8738  -4.8636  -4.8503
    -4.2184  -4.0108  -3.9702  -3.7515  -3.6480  -3.4277  -3.3885  -3.1457
    -0.7084  -0.6565  -0.5622  -0.4049  -0.3639  -0.3133  -0.2280  -0.1767
    -0.0559  -0.0197   0.0640   0.1060   0.3688   0.3842   0.4489   0.4781
     0.5023   0.5391   0.5898   0.6175   0.6605   0.6785   0.7104   0.7480
     0.7879   0.8669   0.9167   0.9559   0.9997   1.0116   1.0492   1.0712
     1.1125   1.1490   1.1660   1.2231   1.2665   1.2978   1.3228   1.3392
     1.3772   1.4116   1.4385   1.4787   1.5344   1.5461   1.5980   1.6199
     1.6566   1.6711   1.7074   1.7229   1.7572   1.7709   1.8040   1.8194
     1.8508   1.8593   1.8862   1.9036   1.9811   2.0102   2.0300   2.0669
     2.0963   2.1706   2.1921   2.2766   2.3141   2.4055   2.4746   2.6500

          k =-0.3750 0.3750 0.1250 (132616 PWs)   bands (ev):

   -18.6018 -18.4887 -18.4826 -18.4402 -18.3656 -18.3627 -18.3597 -18.3531
   -18.3511 -18.3435 -18.3329 -18.3175 -18.3119 -18.3060 -18.3004 -18.2935
   -18.2812 -18.2710 -18.2671 -18.2575 -18.2545 -18.2327 -18.2266 -18.2259
   -18.2214 -18.2150 -18.2137 -18.2053 -18.1954 -18.1855 -18.1781 -18.1761
   -18.1735 -18.1691 -18.1571 -18.1471 -18.1434 -18.1159 -18.1117 -18.1052
   -18.1036 -18.0998 -18.0990 -18.0890 -18.0872 -18.0851 -18.0841 -18.0763
    -9.5049  -9.3857  -9.3624  -9.2746  -9.2223  -9.1290  -9.0575  -9.0508
    -9.0266  -8.9916  -8.9717  -8.9416  -8.8829  -8.8486  -8.8017  -8.7822
    -8.7448  -8.7298  -8.7027  -8.6202  -8.6129  -8.5563  -8.5230  -8.3280
    -5.3743  -5.3553  -5.3510  -5.2745  -5.2623  -5.2576  -5.2498  -5.2423
    -5.2369  -5.2251  -5.2159  -5.2047  -5.1371  -5.1357  -5.1266  -5.1237
    -5.1155  -5.1047  -5.0229  -5.0098  -4.9933  -4.8738  -4.8636  -4.8504
    -4.2170  -4.0016  -3.9742  -3.7899  -3.6061  -3.4260  -3.3994  -3.1464
    -0.7117  -0.6630  -0.5566  -0.4240  -0.3638  -0.3054  -0.2157  -0.1545
    -0.0641  -0.0339   0.0976   0.1232   0.3239   0.3648   0.4391   0.4818
     0.5059   0.5312   0.5996   0.6294   0.6543   0.6710   0.7192   0.7459
     0.7854   0.8790   0.9213   0.9383   0.9859   1.0263   1.0525   1.0827
     1.0980   1.1517   1.1935   1.2181   1.2658   1.2913   1.3304   1.3444
     1.3826   1.4061   1.4310   1.4737   1.5417   1.5578   1.5791   1.6165
     1.6405   1.6648   1.7158   1.7364   1.7502   1.7648   1.7834   1.8299
     1.8422   1.8842   1.8943   1.9164   1.9873   1.9999   2.0309   2.0728
     2.0934   2.1457   2.1820   2.2907   2.3134   2.4164   2.4765   2.6475

          k =-0.3750-0.3750 0.3750 (132612 PWs)   bands (ev):

   -18.6018 -18.4887 -18.4826 -18.4402 -18.3656 -18.3627 -18.3597 -18.3531
   -18.3511 -18.3435 -18.3329 -18.3175 -18.3119 -18.3060 -18.3004 -18.2935
   -18.2812 -18.2710 -18.2671 -18.2575 -18.2545 -18.2327 -18.2266 -18.2259
   -18.2214 -18.2150 -18.2137 -18.2053 -18.1954 -18.1855 -18.1781 -18.1761
   -18.1735 -18.1691 -18.1571 -18.1471 -18.1434 -18.1159 -18.1117 -18.1052
   -18.1036 -18.0998 -18.0990 -18.0890 -18.0872 -18.0851 -18.0841 -18.0763
    -9.4983  -9.3854  -9.3367  -9.3088  -9.2386  -9.1085  -9.0711  -9.0526
    -9.0266  -9.0048  -8.9652  -8.9283  -8.8875  -8.8342  -8.8054  -8.7820
    -8.7454  -8.7356  -8.7031  -8.6206  -8.5832  -8.5572  -8.5442  -8.3288
    -5.3742  -5.3553  -5.3510  -5.2745  -5.2621  -5.2572  -5.2512  -5.2428
    -5.2359  -5.2252  -5.2157  -5.2045  -5.1381  -5.1350  -5.1272  -5.1226
    -5.1163  -5.1040  -5.0229  -5.0096  -4.9932  -4.8736  -4.8639  -4.8500
    -4.0997  -3.9429  -3.8479  -3.8263  -3.6472  -3.5695  -3.5218  -3.3284
    -0.4529  -0.4052  -0.3623  -0.3273  -0.2636  -0.2246  -0.1392  -0.0887
    -0.0244   0.0177   0.1469   0.1736   0.2786   0.3359   0.3938   0.4218
     0.4472   0.5003   0.5471   0.5735   0.6047   0.6347   0.6567   0.7117
     0.8257   0.8730   0.8814   0.9117   0.9415   0.9670   1.0217   1.0485
     1.0639   1.0985   1.1353   1.1578   1.2230   1.2374   1.2491   1.3324
     1.3816   1.4299   1.4693   1.4883   1.5509   1.5734   1.5943   1.6261
     1.6466   1.6694   1.7124   1.7385   1.7605   1.7649   1.7986   1.8182
     1.8309   1.8501   1.8803   1.9043   1.9389   1.9690   1.9912   2.0330
     2.0626   2.0945   2.1362   2.1631   2.1788   2.2425   2.2938   2.4532

          k =-0.3750 0.3750-0.3750 (132612 PWs)   bands (ev):

   -18.6018 -18.4887 -18.4826 -18.4402 -18.3656 -18.3627 -18.3597 -18.3531
   -18.3511 -18.3435 -18.3329 -18.3175 -18.3119 -18.3060 -18.3004 -18.2935
   -18.2812 -18.2710 -18.2671 -18.2575 -18.2545 -18.2327 -18.2266 -18.2259
   -18.2214 -18.2150 -18.2137 -18.2053 -18.1954 -18.1855 -18.1781 -18.1761
   -18.1735 -18.1691 -18.1571 -18.1471 -18.1434 -18.1159 -18.1117 -18.1052
   -18.1036 -18.0998 -18.0990 -18.0890 -18.0872 -18.0851 -18.0841 -18.0763
    -9.4986  -9.3842  -9.3385  -9.3083  -9.2371  -9.1104  -9.0756  -9.0435
    -9.0305  -9.0064  -8.9646  -8.9282  -8.8842  -8.8365  -8.8037  -8.7841
    -8.7462  -8.7310  -8.7069  -8.6201  -8.5835  -8.5561  -8.5448  -8.3288
    -5.3743  -5.3553  -5.3510  -5.2745  -5.2622  -5.2570  -5.2511  -5.2430
    -5.2358  -5.2254  -5.2158  -5.2043  -5.1384  -5.1348  -5.1277  -5.1218
    -5.1156  -5.1047  -5.0229  -5.0096  -4.9932  -4.8737  -4.8638  -4.8500
    -4.1057  -3.9364  -3.8445  -3.8195  -3.6563  -3.5760  -3.5214  -3.3240
    -0.4562  -0.4275  -0.3533  -0.3201  -0.2560  -0.1892  -0.1211  -0.0782
    -0.0367  -0.0196   0.1007   0.1696   0.2809   0.3515   0.3988   0.4289
     0.4613   0.4947   0.5398   0.5783   0.6052   0.6209   0.6606   0.7044
     0.8403   0.8598   0.9049   0.9252   0.9474   0.9686   1.0011   1.0453
     1.0650   1.1041   1.1363   1.1600   1.2004   1.2341   1.2771   1.3103
     1.4009   1.4364   1.4720   1.4967   1.5314   1.5767   1.5992   1.6147
     1.6449   1.6658   1.7138   1.7373   1.7550   1.7693   1.7771   1.8067
     1.8245   1.8593   1.8782   1.9123   1.9322   1.9654   2.0110   2.0407
     2.0751   2.0993   2.1151   2.1565   2.2097   2.2340   2.3193   2.4198

          k = 0.3750-0.3750-0.3750 (132612 PWs)   bands (ev):

   -18.6018 -18.4887 -18.4826 -18.4402 -18.3656 -18.3627 -18.3597 -18.3531
   -18.3511 -18.3435 -18.3329 -18.3175 -18.3119 -18.3060 -18.3004 -18.2935
   -18.2812 -18.2710 -18.2671 -18.2575 -18.2545 -18.2327 -18.2266 -18.2259
   -18.2214 -18.2150 -18.2137 -18.2053 -18.1954 -18.1855 -18.1781 -18.1761
   -18.1735 -18.1691 -18.1571 -18.1471 -18.1434 -18.1159 -18.1117 -18.1052
   -18.1036 -18.0998 -18.0990 -18.0890 -18.0872 -18.0851 -18.0841 -18.0763
    -9.4981  -9.3840  -9.3458  -9.2989  -9.2398  -9.1199  -9.0641  -9.0460
    -9.0240  -9.0051  -8.9666  -8.9375  -8.8823  -8.8339  -8.8060  -8.7831
    -8.7451  -8.7336  -8.7052  -8.6179  -8.5858  -8.5584  -8.5421  -8.3288
    -5.3743  -5.3553  -5.3510  -5.2744  -5.2627  -5.2568  -5.2511  -5.2427
    -5.2360  -5.2251  -5.2158  -5.2046  -5.1381  -5.1350  -5.1272  -5.1225
    -5.1163  -5.1040  -5.0230  -5.0096  -4.9932  -4.8736  -4.8638  -4.8501
    -4.0903  -3.9496  -3.8819  -3.7980  -3.6402  -3.5963  -3.4874  -3.3400
    -0.4852  -0.4269  -0.3606  -0.3012  -0.2453  -0.2131  -0.1019  -0.0657
    -0.0446   0.0171   0.1393   0.1856   0.2341   0.3193   0.3701   0.4319
     0.4430   0.5059   0.5528   0.5656   0.6049   0.6366   0.6849   0.7149
     0.7970   0.8581   0.8993   0.9082   0.9432   0.9773   1.0304   1.0499
     1.0636   1.1134   1.1391   1.1641   1.1995   1.2384   1.2565   1.3247
     1.3928   1.4223   1.4736   1.5074   1.5289   1.5801   1.5837   1.6232
     1.6342   1.6906   1.7232   1.7422   1.7503   1.7648   1.7730   1.8060
     1.8382   1.8549   1.8901   1.9028   1.9429   1.9665   2.0012   2.0127
     2.0648   2.1100   2.1255   2.1573   2.1917   2.2240   2.3145   2.4539

     highest occupied level (ev):     3.1608

!    total energy              =   -2256.29140489 Ry
     estimated scf accuracy    <          3.6E-11 Ry

     The total energy is the sum of the following terms:
     one-electron contribution =    -991.91197052 Ry
     hartree contribution      =     624.06753602 Ry
     xc contribution           =    -647.52353737 Ry
     ewald contribution        =   -1240.92343302 Ry

     convergence has been achieved in  16 iterations

     Forces acting on atoms (cartesian axes, Ry/au):

     atom    1 type  1   force =    -0.00599165   -0.00768039   -0.00277907
     atom    2 type  2   force =     0.00142441   -0.02493746   -0.00230363
     atom    3 type  3   force =     0.01203287    0.00187797    0.00152732
     atom    4 type  3   force =     0.00220700    0.00456161   -0.01295962
     atom    5 type  3   force =     0.00019261    0.00071860    0.00547130
     atom    6 type  1   force =     0.00259037    0.00096308    0.00399959
     atom    7 type  2   force =     0.00604936    0.00136320   -0.00460526
     atom    8 type  3   force =    -0.00083214    0.00619077   -0.00501684
     atom    9 type  3   force =     0.01129880    0.00095968   -0.00608703
     atom   10 type  3   force =    -0.00880810   -0.00509113   -0.01045254
     atom   11 type  1   force =    -0.00290179    0.00013098   -0.00031626
     atom   12 type  2   force =     0.00671528    0.02828133   -0.00959379
     atom   13 type  3   force =    -0.01002333   -0.00371206    0.00122678
     atom   14 type  3   force =    -0.00243757   -0.00348850   -0.00472338
     atom   15 type  3   force =    -0.00318530    0.00304489    0.00358531
     atom   16 type  1   force =    -0.00337146   -0.00450481    0.00442729
     atom   17 type  2   force =     0.01885710   -0.00576991    0.00934107
     atom   18 type  3   force =    -0.00583492   -0.00457381   -0.00839491
     atom   19 type  3   force =    -0.00516807   -0.00047628    0.00599677
     atom   20 type  3   force =    -0.00378299    0.00188309    0.00101757
     atom   21 type  1   force =    -0.00162609   -0.00545526   -0.00016024
     atom   22 type  2   force =    -0.00485119    0.00849793    0.01311240
     atom   23 type  3   force =    -0.03251975    0.00110397    0.01111242
     atom   24 type  3   force =    -0.00302425    0.00012079   -0.00100298
     atom   25 type  3   force =     0.00218827    0.01154397   -0.00264936
     atom   26 type  1   force =     0.00187269   -0.00136466    0.00056597
     atom   27 type  2   force =     0.00437623   -0.02955168    0.00969197
     atom   28 type  3   force =     0.00181531    0.00374873    0.00309099
     atom   29 type  3   force =     0.00286368    0.00081822   -0.01878173
     atom   30 type  3   force =    -0.00287264    0.02837229    0.00330046
     atom   31 type  1   force =     0.00467701    0.00580080    0.00682494
     atom   32 type  2   force =    -0.00507308   -0.00743901    0.00463559
     atom   33 type  3   force =     0.00776812   -0.00526854    0.00366123
     atom   34 type  3   force =     0.01166016    0.01169841    0.01639598
     atom   35 type  3   force =    -0.00162004   -0.01758706   -0.00039713
     atom   36 type  1   force =     0.00128111    0.00161330    0.00059877
     atom   37 type  2   force =    -0.01921653    0.01611440   -0.00321000
     atom   38 type  3   force =     0.01819326   -0.00021429   -0.00041867
     atom   39 type  3   force =     0.00385960   -0.00135432   -0.01462770
     atom   40 type  3   force =     0.00121765   -0.01093887   -0.00110358

     Total force =     0.099153     Total SCF correction =     0.000028


     Computing stress (Cartesian axis) and pressure

          total   stress  (Ry/bohr**3)                   (kbar)     P=       -7.07
  -0.00005219  -0.00000010  -0.00000411           -7.68       -0.01       -0.60
  -0.00000010  -0.00004771   0.00000094           -0.01       -7.02        0.14
  -0.00000411   0.00000094  -0.00004436           -0.60        0.14       -6.53

 
     init_run     :     19.98s CPU     17.00s WALL (       1 calls)
     electrons    :    213.27s CPU    224.42s WALL (       1 calls)
     forces       :      8.86s CPU      4.01s WALL (       1 calls)
     stress       :     31.85s CPU     31.30s WALL (       1 calls)

     Called by init_run:
     wfcinit      :     12.05s CPU     13.92s WALL (       1 calls)
                                       13.92s GPU  (       1 calls)
     potinit      :      4.54s CPU      1.40s WALL (       1 calls)
     hinit0       :      2.81s CPU      1.00s WALL (       1 calls)

     Called by electrons:
     c_bands      :    126.61s CPU    179.21s WALL (      17 calls)
     sum_band     :     23.08s CPU     22.41s WALL (      17 calls)
                                       22.41s GPU  (      17 calls)
     v_of_rho     :     58.65s CPU     17.64s WALL (      17 calls)
     mix_rho      :      6.96s CPU      5.42s WALL (      17 calls)

     Called by c_bands:
     init_us_2    :      2.32s CPU      3.13s WALL (     296 calls)
                                        3.12s GPU  (     296 calls)
     cegterg      :     84.91s CPU    134.88s WALL (     136 calls)

     Called by *egterg:
     cdiaghg      :     14.44s CPU     26.73s WALL (     674 calls)
                                       26.69s GPU  (     674 calls)
     h_psi        :     57.58s CPU     77.66s WALL (     690 calls)
                                       77.20s GPU  (     690 calls)
     g_psi        :      0.00s CPU      0.38s WALL (     546 calls)
                                        0.37s GPU  (     546 calls)

     Called by h_psi:
     h_psi:calbec :      0.32s CPU     10.50s WALL (     690 calls)
                                       10.49s GPU  (     690 calls)
     vloc_psi     :     41.46s CPU     56.60s WALL (     690 calls)
                                       55.63s GPU  (     690 calls)
     add_vuspsi   :      0.36s CPU     10.48s WALL (     690 calls)
                                       10.47s GPU  (     690 calls)

     General routines
     calbec       :      0.32s CPU      0.40s WALL (     730 calls)
     fft          :     27.33s CPU      6.97s WALL (     195 calls)
                                        0.00s GPU  (       6 calls)
     ffts         :      2.82s CPU      0.72s WALL (      17 calls)
     fftw         :      0.66s CPU     65.73s WALL (   11004 calls)
                                       49.10s GPU  (   11004 calls)
 
     Parallel routines
 
     PWSCF        :   4m34.82s CPU   4m37.64s WALL

 
   This run was terminated on:  20:31:39  22Apr2021            

=------------------------------------------------------------------------------=
   JOB DONE.
=------------------------------------------------------------------------------=
