
     Program PWSCF v.6.7MaX starts on 22Apr2021 at 23:30:24 

     This program is part of the open-source Quantum ESPRESSO suite
     for quantum simulation of materials; please cite
         "P. Giannozzi et al., J. Phys.:Condens. Matter 21 395502 (2009);
         "P. Giannozzi et al., J. Phys.:Condens. Matter 29 465901 (2017);
         "P. Giannozzi et al., J. Chem. Phys. 152 154105 (2020);
          URL http://www.quantum-espresso.org", 
     in publications or presentations arising from this work. More details at
     http://www.quantum-espresso.org/quote

     Parallel version (MPI & OpenMP), running on      16 processor cores
     Number of MPI processes:                 4
     Threads/MPI process:                     4

     MPI processes distributed on     1 nodes
     K-points division:     npool     =       4
     Reading input from ESP_33.pwi
Warning: card &CELL ignored
Warning: card / ignored

     Current dimensions of program PWSCF are:
     Max number of different atomic species (ntypx) = 10
     Max number of k-points (npk) =  40000
     Max angular momentum in pseudopotentials (lmaxx) =  3
     Message from routine read_pp_mesh:
     mesh size missing, using the one in header
     Message from routine read_pp_mesh:
     mesh size missing, using the one in header
     Message from routine read_pp_mesh:
     mesh size missing, using the one in header

     Subspace diagonalization in iterative solution of the eigenvalue problem:
     a serial algorithm will be used

 
     G-vector sticks info
     --------------------
     sticks:   dense  smooth     PW     G-vecs:    dense   smooth      PW
     Sum       12589   12589   3289              1061107  1061107  140905
 
     Using Slab Decomposition
 


     bravais-lattice index     =            0
     lattice parameter (alat)  =      23.7585  a.u.
     unit-cell volume          =   13410.8736 (a.u.)^3
     number of atoms/cell      =           40
     number of atomic types    =            3
     number of electrons       =       352.00
     number of Kohn-Sham states=          176
     kinetic-energy cutoff     =      70.0000  Ry
     charge density cutoff     =     280.0000  Ry
     scf convergence threshold =      1.0E-10
     mixing beta               =       0.7000
     number of iterations used =            8  plain     mixing
     Exchange-correlation= PBESOL
                           (   1   4  10   8   0   0   0)

     GPU acceleration is ACTIVE.


     celldm(1)=  23.758500  celldm(2)=   0.000000  celldm(3)=   0.000000
     celldm(4)=   0.000000  celldm(5)=   0.000000  celldm(6)=   0.000000

     crystal axes: (cart. coord. in units of alat)
               a(1) = (   1.000000   0.000000   0.000000 )  
               a(2) = (   0.000000   1.000000   0.000000 )  
               a(3) = (   0.000000   0.000000   1.000000 )  

     reciprocal axes: (cart. coord. in units 2 pi/alat)
               b(1) = (  1.000000  0.000000  0.000000 )  
               b(2) = (  0.000000  1.000000  0.000000 )  
               b(3) = (  0.000000  0.000000  1.000000 )  


     PseudoPot. # 1 for Cs read from file:
     /m100/home/userexternal/lmonacel/espresso/pseudo/Cs-nc-pbesol.upf
     MD5 check sum: 9d2f2206a14dc5b3b3f3fbfae186bed4
     Pseudo is Norm-conserving + core correction, Zval =  9.0
     Generated using ONCVPSP code by D. R. Hamann
     Using radial grid of 2384 points,  8 beta functions with: 
                l(1) =   0
                l(2) =   0
                l(3) =   1
                l(4) =   1
                l(5) =   2
                l(6) =   2
                l(7) =   3
                l(8) =   3

     PseudoPot. # 2 for Sn read from file:
     /m100/home/userexternal/lmonacel/espresso/pseudo/Sn-nc-pbesol.upf
     MD5 check sum: c2995d571af40102bfea7461443d92cf
     Pseudo is Norm-conserving + core correction, Zval = 14.0
     Generated using ONCVPSP code by D. R. Hamann
     Using radial grid of 1628 points,  6 beta functions with: 
                l(1) =   0
                l(2) =   0
                l(3) =   1
                l(4) =   1
                l(5) =   2
                l(6) =   2

     PseudoPot. # 3 for I  read from file:
     /m100/home/userexternal/lmonacel/espresso/pseudo/I-nc-pbesol.upf
     MD5 check sum: 80ed5ceb2eb9c553cfb6760a299d9c5b
     Pseudo is Norm-conserving + core correction, Zval =  7.0
     Generated using ONCVPSP code by D. R. Hamann
     Using radial grid of 1182 points,  6 beta functions with: 
                l(1) =   0
                l(2) =   0
                l(3) =   1
                l(4) =   1
                l(5) =   2
                l(6) =   2

     atomic species   valence    mass     pseudopotential
        Cs             9.00   132.90545     Cs( 1.00)
        Sn            14.00   118.71000     Sn( 1.00)
        I              7.00   126.90447     I ( 1.00)

     No symmetry found



   Cartesian axes

     site n.     atom                  positions (alat units)
         1           Cs  tau(   1) = (   0.2706554   0.2634309   0.2619946  )
         2           Sn  tau(   2) = (  -0.0181543  -0.0099226   0.0017348  )
         3           I   tau(   3) = (   0.2399607  -0.0215611   0.0184791  )
         4           I   tau(   4) = (  -0.0413242   0.0165958   0.2587979  )
         5           I   tau(   5) = (   0.0077009   0.2545589  -0.0279108  )
         6           Cs  tau(   6) = (   0.2544089   0.2552682   0.7341465  )
         7           Sn  tau(   7) = (  -0.0041704  -0.0115075   0.5121872  )
         8           I   tau(   8) = (   0.2417772   0.0324437   0.5126956  )
         9           I   tau(   9) = (   0.0072827  -0.0527691   0.7466305  )
        10           I   tau(  10) = (  -0.0009253   0.2501899   0.5453689  )
        11           Cs  tau(  11) = (   0.2915819   0.7777165   0.2579461  )
        12           Sn  tau(  12) = (  -0.0080556   0.5091459  -0.0082257  )
        13           I   tau(  13) = (   0.2491999   0.5129325  -0.0112844  )
        14           I   tau(  14) = (   0.0154216   0.4767306   0.2345801  )
        15           I   tau(  15) = (  -0.0164765   0.7580251  -0.0026666  )
        16           Cs  tau(  16) = (   0.2523142   0.7267863   0.7902885  )
        17           Sn  tau(  17) = (   0.0202333   0.4820747   0.4810317  )
        18           I   tau(  18) = (   0.2531013   0.4703769   0.4571311  )
        19           I   tau(  19) = (   0.0048657   0.5335690   0.7369478  )
        20           I   tau(  20) = (   0.0224957   0.7624478   0.4577156  )
        21           Cs  tau(  21) = (   0.7668203   0.2748655   0.3117829  )
        22           Sn  tau(  22) = (   0.4866687   0.0065554   0.0109853  )
        23           I   tau(  23) = (   0.7368674  -0.0056563  -0.0243877  )
        24           I   tau(  24) = (   0.5461374  -0.0061218   0.2663354  )
        25           I   tau(  25) = (   0.4558165   0.2547975   0.0089834  )
        26           Cs  tau(  26) = (   0.7276179   0.2598286   0.7902764  )
        27           Sn  tau(  27) = (   0.5042633   0.0153631   0.5197822  )
        28           I   tau(  28) = (   0.7393496   0.0036835   0.5554317  )
        29           I   tau(  29) = (   0.4642143   0.0115478   0.7590441  )
        30           I   tau(  30) = (   0.4919434   0.2616701   0.4872824  )
        31           Cs  tau(  31) = (   0.7289129   0.7565247   0.2415778  )
        32           Sn  tau(  32) = (   0.4966439   0.4918564  -0.0010558  )
        33           I   tau(  33) = (   0.7589422   0.4791240   0.0196633  )
        34           I   tau(  34) = (   0.5095781   0.5007952   0.2389942  )
        35           I   tau(  35) = (   0.5171504   0.7494853  -0.0281635  )
        36           Cs  tau(  36) = (   0.7366257   0.7213254   0.7108568  )
        37           Sn  tau(  37) = (   0.5058958   0.5049710   0.4898802  )
        38           I   tau(  38) = (   0.7486134   0.4972985   0.4852679  )
        39           I   tau(  39) = (   0.5039879   0.4831921   0.7362558  )
        40           I   tau(  40) = (   0.5296123   0.7499312   0.4593515  )

     number of k points=    32
                       cart. coord. in units 2pi/alat
        k(    1) = (   0.1250000   0.1250000   0.1250000), wk =   0.0625000
        k(    2) = (   0.1250000   0.1250000   0.3750000), wk =   0.0625000
        k(    3) = (   0.1250000   0.3750000   0.3750000), wk =   0.0625000
        k(    4) = (   0.3750000   0.3750000   0.3750000), wk =   0.0625000
        k(    5) = (  -0.1250000  -0.1250000   0.1250000), wk =   0.0625000
        k(    6) = (  -0.1250000   0.1250000  -0.1250000), wk =   0.0625000
        k(    7) = (   0.1250000  -0.1250000  -0.1250000), wk =   0.0625000
        k(    8) = (  -0.1250000  -0.1250000   0.3750000), wk =   0.0625000
        k(    9) = (  -0.1250000   0.1250000  -0.3750000), wk =   0.0625000
        k(   10) = (   0.1250000  -0.1250000  -0.3750000), wk =   0.0625000
        k(   11) = (   0.3750000  -0.1250000   0.1250000), wk =   0.0625000
        k(   12) = (  -0.3750000  -0.1250000  -0.1250000), wk =   0.0625000
        k(   13) = (   0.3750000   0.1250000  -0.1250000), wk =   0.0625000
        k(   14) = (  -0.3750000   0.1250000   0.1250000), wk =   0.0625000
        k(   15) = (  -0.1250000   0.3750000   0.1250000), wk =   0.0625000
        k(   16) = (  -0.1250000  -0.3750000  -0.1250000), wk =   0.0625000
        k(   17) = (   0.1250000   0.3750000  -0.1250000), wk =   0.0625000
        k(   18) = (   0.1250000  -0.3750000   0.1250000), wk =   0.0625000
        k(   19) = (  -0.1250000  -0.3750000   0.3750000), wk =   0.0625000
        k(   20) = (  -0.1250000   0.3750000  -0.3750000), wk =   0.0625000
        k(   21) = (   0.1250000  -0.3750000  -0.3750000), wk =   0.0625000
        k(   22) = (   0.3750000   0.1250000  -0.3750000), wk =   0.0625000
        k(   23) = (  -0.3750000  -0.1250000  -0.3750000), wk =   0.0625000
        k(   24) = (   0.3750000  -0.1250000   0.3750000), wk =   0.0625000
        k(   25) = (  -0.3750000   0.1250000   0.3750000), wk =   0.0625000
        k(   26) = (   0.3750000  -0.3750000   0.1250000), wk =   0.0625000
        k(   27) = (  -0.3750000  -0.3750000  -0.1250000), wk =   0.0625000
        k(   28) = (   0.3750000   0.3750000  -0.1250000), wk =   0.0625000
        k(   29) = (  -0.3750000   0.3750000   0.1250000), wk =   0.0625000
        k(   30) = (  -0.3750000  -0.3750000   0.3750000), wk =   0.0625000
        k(   31) = (  -0.3750000   0.3750000  -0.3750000), wk =   0.0625000
        k(   32) = (   0.3750000  -0.3750000  -0.3750000), wk =   0.0625000

     Dense  grid:  1061107 G-vectors     FFT dimensions: ( 128, 128, 128)

     Estimated max dynamical RAM per process >       6.82 GB

     Estimated total dynamical RAM >      27.27 GB

     Initial potential from superposition of free atoms

     starting charge  351.69472, renormalised to  352.00000
     Starting wfcs are  208 randomized atomic wfcs

     total cpu time spent up to now is       18.1 secs

     Self-consistent Calculation

     iteration #  1     ecut=    70.00 Ry     beta= 0.70
     Davidson diagonalization with overlap
     ethr =  1.00E-02,  avg # of iterations =  1.9

     Threshold (ethr) on eigenvalues was too large:
     Diagonalizing with lowered threshold

     Davidson diagonalization with overlap
     ethr =  2.21E-04,  avg # of iterations =  4.0

     total cpu time spent up to now is       39.1 secs

     total energy              =   -2256.02496500 Ry
     estimated scf accuracy    <       0.67781856 Ry

     iteration #  2     ecut=    70.00 Ry     beta= 0.70
     Davidson diagonalization with overlap
     ethr =  1.93E-04,  avg # of iterations =  3.3

     total cpu time spent up to now is       51.9 secs

     total energy              =   -2256.24058270 Ry
     estimated scf accuracy    <       0.28982448 Ry

     iteration #  3     ecut=    70.00 Ry     beta= 0.70
     Davidson diagonalization with overlap
     ethr =  8.23E-05,  avg # of iterations =  2.4

     total cpu time spent up to now is       63.7 secs

     total energy              =   -2256.29566390 Ry
     estimated scf accuracy    <       0.01257656 Ry

     iteration #  4     ecut=    70.00 Ry     beta= 0.70
     Davidson diagonalization with overlap
     ethr =  3.57E-06,  avg # of iterations =  4.5

     total cpu time spent up to now is       77.9 secs

     total energy              =   -2256.30127554 Ry
     estimated scf accuracy    <       0.00489239 Ry

     iteration #  5     ecut=    70.00 Ry     beta= 0.70
     Davidson diagonalization with overlap
     ethr =  1.39E-06,  avg # of iterations =  4.0

     total cpu time spent up to now is       90.3 secs

     total energy              =   -2256.30212518 Ry
     estimated scf accuracy    <       0.00086588 Ry

     iteration #  6     ecut=    70.00 Ry     beta= 0.70
     Davidson diagonalization with overlap
     ethr =  2.46E-07,  avg # of iterations =  4.0

     total cpu time spent up to now is      103.0 secs

     total energy              =   -2256.30226047 Ry
     estimated scf accuracy    <       0.00020844 Ry

     iteration #  7     ecut=    70.00 Ry     beta= 0.70
     Davidson diagonalization with overlap
     ethr =  5.92E-08,  avg # of iterations =  4.0

     total cpu time spent up to now is      116.0 secs

     total energy              =   -2256.30231341 Ry
     estimated scf accuracy    <       0.00001757 Ry

     iteration #  8     ecut=    70.00 Ry     beta= 0.70
     Davidson diagonalization with overlap
     ethr =  4.99E-09,  avg # of iterations =  5.8

     total cpu time spent up to now is      131.2 secs

     total energy              =   -2256.30232397 Ry
     estimated scf accuracy    <       0.00000398 Ry

     iteration #  9     ecut=    70.00 Ry     beta= 0.70
     Davidson diagonalization with overlap
     ethr =  1.13E-09,  avg # of iterations =  4.0

     total cpu time spent up to now is      144.7 secs

     total energy              =   -2256.30232498 Ry
     estimated scf accuracy    <       0.00000100 Ry

     iteration # 10     ecut=    70.00 Ry     beta= 0.70
     Davidson diagonalization with overlap
     ethr =  2.84E-10,  avg # of iterations =  4.0

     total cpu time spent up to now is      158.2 secs

     total energy              =   -2256.30232529 Ry
     estimated scf accuracy    <       0.00000008 Ry

     iteration # 11     ecut=    70.00 Ry     beta= 0.70
     Davidson diagonalization with overlap
     ethr =  2.26E-11,  avg # of iterations =  6.9

     total cpu time spent up to now is      175.9 secs

     total energy              =   -2256.30232537 Ry
     estimated scf accuracy    <       0.00000005 Ry

     iteration # 12     ecut=    70.00 Ry     beta= 0.70
     Davidson diagonalization with overlap
     ethr =  1.34E-11,  avg # of iterations =  2.3

     total cpu time spent up to now is      188.2 secs

     total energy              =   -2256.30232538 Ry
     estimated scf accuracy    <          7.3E-09 Ry

     iteration # 13     ecut=    70.00 Ry     beta= 0.70
     Davidson diagonalization with overlap
     ethr =  2.08E-12,  avg # of iterations =  5.2

     total cpu time spent up to now is      203.1 secs

     total energy              =   -2256.30232538 Ry
     estimated scf accuracy    <          6.0E-10 Ry

     iteration # 14     ecut=    70.00 Ry     beta= 0.70
     Davidson diagonalization with overlap
     ethr =  1.70E-13,  avg # of iterations =  6.8

     total cpu time spent up to now is      221.7 secs

     total energy              =   -2256.30232538 Ry
     estimated scf accuracy    <          1.9E-10 Ry

     iteration # 15     ecut=    70.00 Ry     beta= 0.70
     Davidson diagonalization with overlap
     ethr =  1.00E-13,  avg # of iterations =  2.2

     total cpu time spent up to now is      233.1 secs

     End of self-consistent calculation

          k = 0.1250 0.1250 0.1250 (132670 PWs)   bands (ev):

   -18.4897 -18.4297 -18.3904 -18.3884 -18.3829 -18.3808 -18.3784 -18.3770
   -18.3768 -18.3723 -18.3698 -18.3695 -18.3663 -18.3654 -18.3645 -18.3622
   -18.3550 -18.3519 -18.3498 -18.3366 -18.3273 -18.3251 -18.3191 -18.3152
   -18.3094 -18.3074 -18.3038 -18.2985 -18.2928 -18.2678 -18.2667 -18.2652
   -18.2376 -18.2045 -18.1939 -18.1855 -18.1836 -18.1765 -18.1762 -18.1690
   -18.1653 -18.1544 -18.1542 -18.0529 -18.0369 -18.0329 -18.0287 -18.0118
    -9.5381  -9.3747  -9.2901  -9.2553  -9.1986  -9.1417  -9.1152  -9.0622
    -9.0337  -9.0235  -8.9803  -8.9400  -8.8909  -8.8576  -8.8482  -8.8189
    -8.8175  -8.7347  -8.6845  -8.6752  -8.6247  -8.5943  -8.4355  -8.3554
    -5.2601  -5.2553  -5.2507  -5.2100  -5.1971  -5.1871  -5.1583  -5.1535
    -5.1423  -5.1287  -5.0990  -5.0872  -5.0788  -5.0754  -5.0551  -5.0513
    -5.0482  -5.0456  -5.0385  -5.0361  -5.0333  -5.0279  -5.0185  -5.0120
    -4.4994  -3.9945  -3.9524  -3.8958  -3.4162  -3.3824  -3.3361  -2.7558
    -0.8804  -0.8191  -0.6937  -0.6445  -0.5806  -0.5242  -0.4748  -0.4270
    -0.3631  -0.2926  -0.2493  -0.1450   0.3541   0.4170   0.4820   0.6258
     0.6603   0.6873   0.6983   0.7328   0.7825   0.8484   0.8934   0.9480
     0.9618   0.9747   1.0307   1.0528   1.0845   1.1124   1.1437   1.1717
     1.1957   1.2090   1.2498   1.2714   1.2977   1.3202   1.3468   1.3681
     1.3977   1.4131   1.4438   1.4552   1.4938   1.5162   1.5292   1.5748
     1.5815   1.5973   1.6205   1.6444   1.6796   1.7304   1.7448   1.7745
     1.8135   1.8545   1.8887   1.8958   1.9190   1.9972   2.0601   2.0844
     2.1655   2.1927   2.2364   2.3183   2.5838   2.6377   2.7410   3.1013

          k = 0.1250 0.1250 0.3750 (132608 PWs)   bands (ev):

   -18.4897 -18.4297 -18.3903 -18.3884 -18.3829 -18.3808 -18.3784 -18.3770
   -18.3768 -18.3723 -18.3698 -18.3695 -18.3663 -18.3654 -18.3645 -18.3622
   -18.3550 -18.3519 -18.3498 -18.3366 -18.3273 -18.3251 -18.3191 -18.3152
   -18.3094 -18.3074 -18.3038 -18.2985 -18.2928 -18.2678 -18.2667 -18.2652
   -18.2376 -18.2045 -18.1939 -18.1855 -18.1836 -18.1765 -18.1762 -18.1689
   -18.1653 -18.1544 -18.1542 -18.0529 -18.0369 -18.0329 -18.0287 -18.0118
    -9.5249  -9.3952  -9.2996  -9.2350  -9.2001  -9.1484  -9.1111  -9.0733
    -9.0319  -9.0210  -8.9841  -8.9384  -8.8896  -8.8488  -8.8414  -8.8246
    -8.8178  -8.7379  -8.6872  -8.6731  -8.6163  -8.5970  -8.4363  -8.3580
    -5.2600  -5.2551  -5.2506  -5.2097  -5.1971  -5.1870  -5.1583  -5.1535
    -5.1424  -5.1286  -5.0989  -5.0869  -5.0789  -5.0753  -5.0555  -5.0518
    -5.0482  -5.0450  -5.0394  -5.0351  -5.0338  -5.0279  -5.0187  -5.0121
    -4.3731  -4.1545  -3.8276  -3.7868  -3.5853  -3.5573  -3.2185  -2.9620
    -0.8458  -0.7130  -0.6539  -0.6096  -0.4525  -0.4067  -0.3607  -0.3271
    -0.2553  -0.1092  -0.0209   0.1609   0.3003   0.4437   0.4568   0.5039
     0.5376   0.5579   0.6126   0.6450   0.6626   0.7441   0.7558   0.8466
     0.8892   0.9123   0.9687   1.0030   1.0350   1.0960   1.1161   1.1431
     1.1825   1.2123   1.2404   1.2638   1.2975   1.3335   1.3438   1.3855
     1.4093   1.4185   1.4404   1.4757   1.5059   1.5219   1.5322   1.5640
     1.5762   1.6086   1.6252   1.6527   1.6819   1.7215   1.7581   1.7699
     1.7933   1.8242   1.8570   1.8937   1.9443   1.9768   2.0076   2.0523
     2.1150   2.1692   2.2218   2.2719   2.3619   2.4096   2.6961   2.8569

          k = 0.1250 0.3750 0.3750 (132616 PWs)   bands (ev):

   -18.4897 -18.4297 -18.3903 -18.3884 -18.3829 -18.3808 -18.3784 -18.3770
   -18.3768 -18.3723 -18.3698 -18.3695 -18.3663 -18.3654 -18.3645 -18.3622
   -18.3549 -18.3519 -18.3498 -18.3366 -18.3273 -18.3251 -18.3191 -18.3152
   -18.3094 -18.3074 -18.3038 -18.2985 -18.2928 -18.2678 -18.2667 -18.2652
   -18.2376 -18.2045 -18.1939 -18.1855 -18.1836 -18.1765 -18.1762 -18.1690
   -18.1653 -18.1544 -18.1542 -18.0529 -18.0369 -18.0329 -18.0287 -18.0118
    -9.5185  -9.3872  -9.2896  -9.2664  -9.2276  -9.1451  -9.0861  -9.0743
    -9.0357  -9.0119  -8.9768  -8.9349  -8.9030  -8.8530  -8.8425  -8.8203
    -8.8123  -8.7418  -8.6869  -8.6565  -8.6256  -8.5991  -8.4362  -8.3595
    -5.2601  -5.2550  -5.2505  -5.2096  -5.1976  -5.1869  -5.1583  -5.1526
    -5.1424  -5.1285  -5.0989  -5.0870  -5.0784  -5.0748  -5.0556  -5.0528
    -5.0475  -5.0446  -5.0388  -5.0360  -5.0347  -5.0280  -5.0186  -5.0124
    -4.2794  -4.0452  -3.9729  -3.7731  -3.6478  -3.4364  -3.3804  -3.1372
    -0.7852  -0.6296  -0.5521  -0.4716  -0.4017  -0.3034  -0.2253  -0.1553
    -0.0440   0.0326   0.0478   0.2019   0.2627   0.4058   0.4215   0.4550
     0.4910   0.5253   0.5800   0.6081   0.6543   0.6735   0.6950   0.7628
     0.8162   0.8332   0.8844   0.9224   0.9509   1.0040   1.0582   1.0913
     1.1314   1.1935   1.2191   1.2623   1.2923   1.3044   1.3328   1.3467
     1.4109   1.4452   1.4777   1.4997   1.5074   1.5249   1.5369   1.5708
     1.5988   1.6225   1.6348   1.6685   1.6874   1.7125   1.7350   1.7672
     1.7911   1.8316   1.8769   1.8975   1.9196   1.9452   2.0116   2.0224
     2.0637   2.0926   2.1506   2.2151   2.2600   2.3671   2.4572   2.6178

          k = 0.3750 0.3750 0.3750 (132612 PWs)   bands (ev):

   -18.4897 -18.4297 -18.3903 -18.3884 -18.3829 -18.3808 -18.3784 -18.3770
   -18.3768 -18.3723 -18.3698 -18.3695 -18.3663 -18.3654 -18.3645 -18.3622
   -18.3549 -18.3519 -18.3498 -18.3366 -18.3274 -18.3251 -18.3191 -18.3152
   -18.3094 -18.3074 -18.3038 -18.2985 -18.2928 -18.2678 -18.2667 -18.2652
   -18.2376 -18.2045 -18.1939 -18.1855 -18.1836 -18.1765 -18.1762 -18.1690
   -18.1653 -18.1544 -18.1542 -18.0529 -18.0369 -18.0329 -18.0287 -18.0118
    -9.5073  -9.3864  -9.3163  -9.2483  -9.2324  -9.1619  -9.0922  -9.0521
    -9.0395  -9.0194  -8.9786  -8.9284  -8.9066  -8.8533  -8.8459  -8.8059
    -8.8016  -8.7386  -8.6915  -8.6558  -8.6271  -8.6057  -8.4364  -8.3597
    -5.2601  -5.2550  -5.2507  -5.2096  -5.1977  -5.1870  -5.1582  -5.1525
    -5.1428  -5.1289  -5.0989  -5.0861  -5.0783  -5.0750  -5.0564  -5.0529
    -5.0470  -5.0441  -5.0391  -5.0368  -5.0340  -5.0278  -5.0181  -5.0123
    -4.1713  -3.9551  -3.9105  -3.8092  -3.6414  -3.5823  -3.5271  -3.3021
    -0.5175  -0.4384  -0.3548  -0.2833  -0.2640  -0.1924  -0.1757  -0.0377
    -0.0142   0.0633   0.1076   0.2063   0.2571   0.3157   0.3703   0.4196
     0.4456   0.4639   0.5211   0.5429   0.5487   0.6014   0.6560   0.7047
     0.7994   0.8589   0.8755   0.9218   0.9547   0.9950   1.0087   1.0411
     1.0619   1.0976   1.1602   1.1667   1.2217   1.2537   1.2822   1.3301
     1.3645   1.4265   1.4604   1.4912   1.5300   1.5455   1.5524   1.5959
     1.6121   1.6444   1.6557   1.6776   1.6955   1.7165   1.7466   1.7805
     1.8024   1.8187   1.8581   1.9032   1.9189   1.9593   1.9794   2.0022
     2.0304   2.0452   2.0939   2.1216   2.1630   2.1761   2.2364   2.4156

          k =-0.1250-0.1250 0.1250 (132670 PWs)   bands (ev):

   -18.4897 -18.4297 -18.3904 -18.3884 -18.3829 -18.3808 -18.3784 -18.3770
   -18.3768 -18.3723 -18.3698 -18.3695 -18.3663 -18.3654 -18.3645 -18.3622
   -18.3550 -18.3519 -18.3498 -18.3366 -18.3273 -18.3251 -18.3191 -18.3152
   -18.3094 -18.3074 -18.3038 -18.2985 -18.2928 -18.2678 -18.2667 -18.2652
   -18.2376 -18.2045 -18.1939 -18.1855 -18.1836 -18.1765 -18.1762 -18.1690
   -18.1653 -18.1544 -18.1542 -18.0529 -18.0369 -18.0329 -18.0287 -18.0118
    -9.5382  -9.3747  -9.2919  -9.2474  -9.2026  -9.1536  -9.1080  -9.0623
    -9.0368  -9.0099  -8.9883  -8.9367  -8.8890  -8.8656  -8.8475  -8.8184
    -8.8149  -8.7358  -8.6852  -8.6737  -8.6252  -8.5946  -8.4345  -8.3559
    -5.2601  -5.2554  -5.2506  -5.2100  -5.1972  -5.1871  -5.1582  -5.1535
    -5.1424  -5.1289  -5.0990  -5.0868  -5.0788  -5.0754  -5.0548  -5.0511
    -5.0484  -5.0459  -5.0384  -5.0364  -5.0334  -5.0280  -5.0183  -5.0119
    -4.4982  -4.0171  -3.9297  -3.8933  -3.4388  -3.3887  -3.3082  -2.7586
    -0.8761  -0.8311  -0.6989  -0.6356  -0.5788  -0.5055  -0.4818  -0.4327
    -0.3846  -0.2789  -0.2456  -0.1366   0.3529   0.4153   0.4840   0.6290
     0.6605   0.6731   0.6950   0.7315   0.7834   0.8562   0.9017   0.9197
     0.9423   1.0084   1.0278   1.0724   1.0841   1.1111   1.1489   1.1652
     1.1755   1.2141   1.2452   1.2830   1.3030   1.3230   1.3297   1.3716
     1.4016   1.4140   1.4345   1.4617   1.4871   1.5005   1.5361   1.5548
     1.5906   1.5994   1.6298   1.6478   1.6862   1.7156   1.7537   1.7736
     1.8164   1.8524   1.8893   1.9113   1.9304   2.0028   2.0510   2.0848
     2.1405   2.1836   2.2716   2.3160   2.5658   2.6658   2.7265   3.1032

          k =-0.1250 0.1250-0.1250 (132670 PWs)   bands (ev):

   -18.4897 -18.4297 -18.3904 -18.3884 -18.3829 -18.3808 -18.3784 -18.3770
   -18.3768 -18.3723 -18.3698 -18.3695 -18.3663 -18.3654 -18.3645 -18.3622
   -18.3550 -18.3519 -18.3498 -18.3366 -18.3273 -18.3251 -18.3191 -18.3152
   -18.3094 -18.3074 -18.3038 -18.2985 -18.2928 -18.2678 -18.2667 -18.2652
   -18.2376 -18.2045 -18.1939 -18.1855 -18.1836 -18.1765 -18.1762 -18.1690
   -18.1653 -18.1544 -18.1542 -18.0529 -18.0369 -18.0329 -18.0287 -18.0118
    -9.5380  -9.3768  -9.2914  -9.2353  -9.2134  -9.1547  -9.1123  -9.0549
    -9.0364  -9.0094  -8.9914  -8.9379  -8.8894  -8.8579  -8.8520  -8.8193
    -8.8155  -8.7344  -8.6868  -8.6742  -8.6242  -8.5948  -8.4345  -8.3559
    -5.2601  -5.2553  -5.2507  -5.2100  -5.1972  -5.1871  -5.1583  -5.1535
    -5.1423  -5.1289  -5.0990  -5.0869  -5.0787  -5.0754  -5.0551  -5.0511
    -5.0486  -5.0458  -5.0384  -5.0361  -5.0334  -5.0279  -5.0185  -5.0118
    -4.4974  -4.0294  -3.9180  -3.8898  -3.4590  -3.3773  -3.3021  -2.7597
    -0.8825  -0.8250  -0.6975  -0.6350  -0.5727  -0.5226  -0.4639  -0.4337
    -0.3904  -0.3068  -0.2258  -0.1291   0.3561   0.4119   0.4852   0.6229
     0.6637   0.6851   0.6952   0.7298   0.7715   0.8536   0.8979   0.9092
     0.9590   0.9983   1.0439   1.0565   1.0919   1.1116   1.1392   1.1706
     1.2113   1.2144   1.2343   1.2742   1.3024   1.3087   1.3513   1.3697
     1.3864   1.4103   1.4455   1.4715   1.4776   1.5085   1.5479   1.5585
     1.5707   1.5914   1.6246   1.6470   1.6843   1.7176   1.7523   1.7877
     1.8093   1.8552   1.8937   1.9070   1.9328   1.9933   2.0395   2.0648
     2.1680   2.1976   2.2554   2.3199   2.5767   2.6620   2.7239   3.1088

          k = 0.1250-0.1250-0.1250 (132670 PWs)   bands (ev):

   -18.4897 -18.4297 -18.3904 -18.3884 -18.3829 -18.3808 -18.3784 -18.3770
   -18.3768 -18.3723 -18.3698 -18.3695 -18.3663 -18.3654 -18.3645 -18.3622
   -18.3550 -18.3519 -18.3498 -18.3366 -18.3273 -18.3251 -18.3191 -18.3152
   -18.3094 -18.3074 -18.3038 -18.2985 -18.2928 -18.2678 -18.2667 -18.2652
   -18.2376 -18.2045 -18.1939 -18.1855 -18.1836 -18.1765 -18.1762 -18.1690
   -18.1653 -18.1544 -18.1542 -18.0529 -18.0369 -18.0329 -18.0287 -18.0118
    -9.5382  -9.3745  -9.2940  -9.2460  -9.2037  -9.1401  -9.1196  -9.0658
    -9.0312  -9.0149  -8.9888  -8.9356  -8.8888  -8.8581  -8.8489  -8.8229
    -8.8148  -8.7361  -8.6869  -8.6710  -8.6254  -8.5945  -8.4354  -8.3554
    -5.2601  -5.2554  -5.2506  -5.2100  -5.1972  -5.1871  -5.1582  -5.1535
    -5.1423  -5.1288  -5.0991  -5.0871  -5.0788  -5.0752  -5.0548  -5.0516
    -5.0483  -5.0455  -5.0384  -5.0360  -5.0337  -5.0280  -5.0185  -5.0118
    -4.4990  -4.0020  -3.9554  -3.8820  -3.4399  -3.3673  -3.3305  -2.7565
    -0.8736  -0.8517  -0.6754  -0.6278  -0.5685  -0.5234  -0.4756  -0.4363
    -0.3637  -0.3240  -0.2261  -0.1458   0.3556   0.4150   0.4837   0.6334
     0.6559   0.6817   0.7029   0.7407   0.7844   0.8408   0.8525   0.9070
     0.9684   1.0049   1.0510   1.0818   1.0940   1.1094   1.1371   1.1457
     1.1943   1.2171   1.2551   1.2874   1.3157   1.3191   1.3487   1.3765
     1.3825   1.4151   1.4382   1.4443   1.4797   1.4994   1.5342   1.5493
     1.5843   1.6187   1.6279   1.6473   1.6832   1.7270   1.7533   1.7796
     1.7958   1.8495   1.8901   1.9004   1.9327   1.9993   2.0434   2.0759
     2.1703   2.1997   2.2471   2.3237   2.5725   2.6432   2.7459   3.0910

          k =-0.1250-0.1250 0.3750 (132608 PWs)   bands (ev):

   -18.4897 -18.4297 -18.3903 -18.3884 -18.3829 -18.3808 -18.3784 -18.3770
   -18.3768 -18.3723 -18.3698 -18.3695 -18.3663 -18.3654 -18.3645 -18.3622
   -18.3550 -18.3519 -18.3498 -18.3366 -18.3273 -18.3251 -18.3191 -18.3152
   -18.3094 -18.3074 -18.3038 -18.2985 -18.2928 -18.2678 -18.2667 -18.2652
   -18.2376 -18.2045 -18.1939 -18.1855 -18.1836 -18.1765 -18.1762 -18.1690
   -18.1653 -18.1544 -18.1542 -18.0529 -18.0369 -18.0329 -18.0287 -18.0118
    -9.5249  -9.3953  -9.2994  -9.2321  -9.1952  -9.1660  -9.1053  -9.0712
    -9.0328  -9.0131  -8.9895  -8.9348  -8.8897  -8.8575  -8.8400  -8.8219
    -8.8157  -8.7392  -8.6875  -8.6719  -8.6164  -8.5977  -8.4352  -8.3585
    -5.2600  -5.2551  -5.2505  -5.2097  -5.1971  -5.1870  -5.1582  -5.1535
    -5.1424  -5.1287  -5.0990  -5.0865  -5.0789  -5.0754  -5.0552  -5.0517
    -5.0484  -5.0452  -5.0394  -5.0352  -5.0340  -5.0280  -5.0186  -5.0120
    -4.3691  -4.1643  -3.8146  -3.7808  -3.6103  -3.5536  -3.2026  -2.9698
    -0.8463  -0.7050  -0.6659  -0.6168  -0.4244  -0.4063  -0.3771  -0.3473
    -0.2547  -0.0721  -0.0133   0.1540   0.3033   0.4274   0.4624   0.4825
     0.5317   0.5688   0.6022   0.6399   0.6732   0.7251   0.7862   0.8311
     0.8804   0.9254   0.9630   1.0145   1.0509   1.1056   1.1181   1.1398
     1.1709   1.2050   1.2142   1.2495   1.3025   1.3341   1.3684   1.3905
     1.4128   1.4327   1.4479   1.4531   1.4973   1.5187   1.5455   1.5590
     1.5838   1.6071   1.6183   1.6501   1.6816   1.7279   1.7380   1.7688
     1.8063   1.8180   1.8683   1.9008   1.9321   1.9869   2.0272   2.0583
     2.1011   2.1443   2.2398   2.2796   2.3593   2.4051   2.6888   2.8639

          k =-0.1250 0.1250-0.3750 (132608 PWs)   bands (ev):

   -18.4897 -18.4297 -18.3903 -18.3884 -18.3829 -18.3808 -18.3784 -18.3770
   -18.3768 -18.3723 -18.3698 -18.3695 -18.3663 -18.3654 -18.3645 -18.3622
   -18.3550 -18.3519 -18.3498 -18.3366 -18.3273 -18.3251 -18.3191 -18.3152
   -18.3094 -18.3074 -18.3038 -18.2985 -18.2928 -18.2678 -18.2667 -18.2652
   -18.2376 -18.2045 -18.1939 -18.1855 -18.1836 -18.1765 -18.1762 -18.1689
   -18.1653 -18.1544 -18.1542 -18.0529 -18.0369 -18.0329 -18.0287 -18.0118
    -9.5247  -9.3966  -9.2985  -9.2266  -9.1975  -9.1706  -9.1086  -9.0648
    -9.0326  -9.0172  -8.9849  -8.9395  -8.8844  -8.8570  -8.8459  -8.8184
    -8.8169  -8.7373  -8.6893  -8.6727  -8.6158  -8.5975  -8.4352  -8.3585
    -5.2600  -5.2551  -5.2506  -5.2097  -5.1971  -5.1870  -5.1583  -5.1535
    -5.1424  -5.1287  -5.0989  -5.0865  -5.0788  -5.0754  -5.0554  -5.0517
    -5.0486  -5.0450  -5.0392  -5.0353  -5.0338  -5.0279  -5.0187  -5.0120
    -4.3680  -4.1661  -3.8254  -3.7607  -3.6337  -3.5384  -3.2023  -2.9705
    -0.8629  -0.6958  -0.6513  -0.5932  -0.4596  -0.4119  -0.3644  -0.3460
    -0.2712  -0.0711  -0.0105   0.1582   0.3001   0.4370   0.4669   0.4951
     0.5307   0.5700   0.6086   0.6325   0.6561   0.7364   0.7704   0.8399
     0.8837   0.9163   0.9800   0.9895   1.0528   1.0767   1.1201   1.1350
     1.1923   1.2160   1.2486   1.2682   1.2926   1.3286   1.3492   1.3891
     1.4015   1.4218   1.4472   1.4714   1.5030   1.5215   1.5458   1.5603
     1.5714   1.5962   1.6192   1.6539   1.6732   1.7139   1.7507   1.7703
     1.8133   1.8351   1.8599   1.8916   1.9383   1.9752   2.0208   2.0395
     2.1151   2.1605   2.2495   2.2683   2.3602   2.4111   2.6827   2.8718

          k = 0.1250-0.1250-0.3750 (132608 PWs)   bands (ev):

   -18.4897 -18.4297 -18.3903 -18.3884 -18.3829 -18.3808 -18.3784 -18.3770
   -18.3768 -18.3723 -18.3698 -18.3695 -18.3663 -18.3654 -18.3645 -18.3622
   -18.3550 -18.3519 -18.3498 -18.3366 -18.3273 -18.3251 -18.3191 -18.3152
   -18.3094 -18.3074 -18.3038 -18.2985 -18.2928 -18.2678 -18.2667 -18.2652
   -18.2376 -18.2045 -18.1939 -18.1855 -18.1836 -18.1765 -18.1762 -18.1690
   -18.1653 -18.1544 -18.1542 -18.0529 -18.0369 -18.0329 -18.0287 -18.0118
    -9.5250  -9.3948  -9.3007  -9.2348  -9.1949  -9.1540  -9.1121  -9.0743
    -9.0318  -9.0180  -8.9859  -8.9367  -8.8835  -8.8519  -8.8491  -8.8223
    -8.8148  -8.7392  -8.6891  -8.6700  -8.6170  -8.5970  -8.4361  -8.3580
    -5.2600  -5.2551  -5.2505  -5.2097  -5.1971  -5.1870  -5.1583  -5.1535
    -5.1424  -5.1286  -5.0991  -5.0867  -5.0789  -5.0752  -5.0552  -5.0520
    -5.0483  -5.0448  -5.0392  -5.0351  -5.0342  -5.0281  -5.0187  -5.0119
    -4.3733  -4.1529  -3.8456  -3.7639  -3.6080  -3.5399  -3.2192  -2.9623
    -0.8527  -0.7108  -0.6557  -0.5960  -0.4667  -0.4132  -0.3723  -0.3057
    -0.2360  -0.1119  -0.0235   0.1586   0.3005   0.4351   0.4557   0.4801
     0.5512   0.5751   0.5966   0.6440   0.6678   0.7258   0.7813   0.8289
     0.8910   0.9151   0.9604   1.0348   1.0500   1.0893   1.0986   1.1222
     1.1706   1.2124   1.2504   1.2886   1.3049   1.3398   1.3614   1.3772
     1.3950   1.4247   1.4379   1.4718   1.4923   1.5150   1.5317   1.5633
     1.5796   1.6032   1.6223   1.6597   1.6784   1.7283   1.7536   1.7712
     1.8156   1.8212   1.8531   1.8811   1.9442   1.9739   2.0107   2.0494
     2.1097   2.1690   2.2440   2.2832   2.3402   2.4130   2.6998   2.8520

          k = 0.3750-0.1250 0.1250 (132608 PWs)   bands (ev):

   -18.4897 -18.4297 -18.3904 -18.3884 -18.3829 -18.3808 -18.3784 -18.3770
   -18.3768 -18.3723 -18.3698 -18.3695 -18.3663 -18.3654 -18.3645 -18.3622
   -18.3550 -18.3519 -18.3498 -18.3366 -18.3274 -18.3251 -18.3191 -18.3152
   -18.3094 -18.3074 -18.3038 -18.2985 -18.2928 -18.2678 -18.2667 -18.2652
   -18.2376 -18.2045 -18.1939 -18.1855 -18.1836 -18.1765 -18.1762 -18.1690
   -18.1653 -18.1544 -18.1542 -18.0529 -18.0369 -18.0329 -18.0287 -18.0118
    -9.5258  -9.3847  -9.3028  -9.2357  -9.2212  -9.1504  -9.1023  -9.0616
    -9.0322  -9.0196  -8.9987  -8.9226  -8.8897  -8.8680  -8.8507  -8.8118
    -8.8013  -8.7286  -8.6926  -8.6698  -8.6268  -8.6023  -8.4358  -8.3562
    -5.2600  -5.2552  -5.2507  -5.2099  -5.1971  -5.1870  -5.1581  -5.1534
    -5.1425  -5.1293  -5.0988  -5.0859  -5.0784  -5.0752  -5.0555  -5.0514
    -5.0486  -5.0450  -5.0394  -5.0366  -5.0328  -5.0281  -5.0185  -5.0122
    -4.3855  -4.1023  -3.8691  -3.7961  -3.6181  -3.4800  -3.2562  -2.9787
    -0.8329  -0.7523  -0.6104  -0.5587  -0.4995  -0.4387  -0.3563  -0.2376
    -0.1753  -0.0947   0.0066   0.1015   0.3244   0.3681   0.4289   0.4712
     0.5338   0.5864   0.6318   0.6627   0.6827   0.7447   0.7677   0.7791
     0.8470   0.9047   0.9424   1.0021   1.0461   1.0765   1.1180   1.1257
     1.1619   1.2036   1.2259   1.2477   1.2749   1.3245   1.3451   1.3624
     1.4042   1.4342   1.4578   1.4848   1.5056   1.5262   1.5563   1.5735
     1.5977   1.6142   1.6414   1.6671   1.6847   1.7136   1.7721   1.7805
     1.8222   1.8450   1.8759   1.9057   1.9163   1.9420   1.9924   2.0312
     2.0761   2.1665   2.2425   2.2911   2.3709   2.5054   2.6074   2.8873

          k =-0.3750-0.1250-0.1250 (132608 PWs)   bands (ev):

   -18.4897 -18.4297 -18.3904 -18.3884 -18.3829 -18.3808 -18.3784 -18.3770
   -18.3768 -18.3723 -18.3698 -18.3695 -18.3663 -18.3654 -18.3645 -18.3622
   -18.3550 -18.3519 -18.3498 -18.3366 -18.3274 -18.3251 -18.3191 -18.3152
   -18.3094 -18.3074 -18.3038 -18.2985 -18.2928 -18.2678 -18.2667 -18.2652
   -18.2376 -18.2045 -18.1939 -18.1855 -18.1836 -18.1765 -18.1762 -18.1690
   -18.1653 -18.1544 -18.1542 -18.0529 -18.0369 -18.0329 -18.0287 -18.0118
    -9.5259  -9.3829  -9.3064  -9.2459  -9.2088  -9.1396  -9.1078  -9.0664
    -9.0342  -9.0278  -8.9898  -8.9214  -8.8936  -8.8648  -8.8505  -8.8112
    -8.8023  -8.7286  -8.6909  -8.6708  -8.6271  -8.6018  -8.4367  -8.3558
    -5.2600  -5.2552  -5.2507  -5.2099  -5.1971  -5.1870  -5.1582  -5.1534
    -5.1425  -5.1291  -5.0988  -5.0863  -5.0785  -5.0751  -5.0555  -5.0516
    -5.0484  -5.0448  -5.0395  -5.0368  -5.0325  -5.0281  -5.0185  -5.0123
    -4.3880  -4.0959  -3.8711  -3.8077  -3.5821  -3.5044  -3.2645  -2.9724
    -0.8501  -0.7081  -0.6164  -0.5693  -0.5089  -0.4391  -0.3589  -0.2206
    -0.1860  -0.1072   0.0014   0.0976   0.3208   0.3691   0.4361   0.4914
     0.5511   0.5734   0.6212   0.6678   0.6975   0.7314   0.7515   0.7992
     0.8224   0.9289   0.9667   0.9929   1.0142   1.0761   1.1140   1.1412
     1.1697   1.1962   1.2185   1.2671   1.2734   1.2979   1.3272   1.3737
     1.4061   1.4417   1.4600   1.4846   1.5133   1.5248   1.5542   1.5873
     1.6117   1.6213   1.6436   1.6571   1.6775   1.7142   1.7461   1.7919
     1.8101   1.8455   1.8812   1.8981   1.9230   1.9376   2.0049   2.0421
     2.0662   2.1902   2.2280   2.2809   2.3513   2.5293   2.5962   2.8788

          k = 0.3750 0.1250-0.1250 (132608 PWs)   bands (ev):

   -18.4897 -18.4297 -18.3904 -18.3884 -18.3829 -18.3808 -18.3784 -18.3770
   -18.3768 -18.3723 -18.3698 -18.3695 -18.3663 -18.3654 -18.3645 -18.3622
   -18.3549 -18.3519 -18.3498 -18.3366 -18.3274 -18.3251 -18.3191 -18.3152
   -18.3094 -18.3074 -18.3038 -18.2985 -18.2928 -18.2678 -18.2667 -18.2652
   -18.2376 -18.2045 -18.1939 -18.1855 -18.1836 -18.1765 -18.1762 -18.1690
   -18.1653 -18.1544 -18.1542 -18.0529 -18.0369 -18.0329 -18.0287 -18.0118
    -9.5261  -9.3824  -9.3041  -9.2488  -9.2086  -9.1497  -9.0918  -9.0756
    -9.0350  -9.0168  -8.9958  -8.9207  -8.8881  -8.8756  -8.8483  -8.8102
    -8.8014  -8.7303  -8.6905  -8.6692  -8.6279  -8.6022  -8.4358  -8.3562
    -5.2600  -5.2553  -5.2506  -5.2098  -5.1971  -5.1871  -5.1581  -5.1534
    -5.1426  -5.1293  -5.0988  -5.0859  -5.0785  -5.0752  -5.0553  -5.0514
    -5.0484  -5.0451  -5.0395  -5.0368  -5.0328  -5.0282  -5.0184  -5.0122
    -4.3877  -4.0922  -3.8844  -3.7962  -3.6093  -3.4747  -3.2660  -2.9757
    -0.8372  -0.7507  -0.6077  -0.5620  -0.4850  -0.4443  -0.3587  -0.2183
    -0.1684  -0.1229  -0.0090   0.1047   0.3108   0.3733   0.4465   0.4908
     0.5460   0.5753   0.6173   0.6623   0.6717   0.7488   0.7633   0.7974
     0.8358   0.9172   0.9437   0.9847   1.0468   1.0674   1.1156   1.1266
     1.1776   1.2066   1.2305   1.2498   1.2706   1.3117   1.3459   1.3590
     1.4044   1.4411   1.4559   1.4736   1.5013   1.5297   1.5590   1.5784
     1.6042   1.6159   1.6399   1.6724   1.6806   1.7256   1.7517   1.7825
     1.8214   1.8336   1.8803   1.9098   1.9276   1.9440   1.9914   2.0479
     2.0664   2.1743   2.2493   2.2779   2.3538   2.5038   2.6192   2.8811

          k =-0.3750 0.1250 0.1250 (132608 PWs)   bands (ev):

   -18.4897 -18.4297 -18.3904 -18.3884 -18.3829 -18.3808 -18.3784 -18.3770
   -18.3768 -18.3723 -18.3698 -18.3695 -18.3663 -18.3654 -18.3645 -18.3622
   -18.3550 -18.3519 -18.3498 -18.3366 -18.3274 -18.3251 -18.3191 -18.3152
   -18.3094 -18.3074 -18.3038 -18.2985 -18.2928 -18.2678 -18.2667 -18.2652
   -18.2376 -18.2045 -18.1939 -18.1855 -18.1836 -18.1765 -18.1762 -18.1690
   -18.1653 -18.1544 -18.1542 -18.0529 -18.0369 -18.0329 -18.0287 -18.0118
    -9.5259  -9.3827  -9.3082  -9.2378  -9.2145  -9.1372  -9.1156  -9.0645
    -9.0346  -9.0209  -8.9962  -8.9170  -8.8925  -8.8647  -8.8520  -8.8137
    -8.8009  -8.7305  -8.6919  -8.6672  -8.6282  -8.6020  -8.4366  -8.3557
    -5.2600  -5.2552  -5.2506  -5.2099  -5.1971  -5.1870  -5.1581  -5.1534
    -5.1425  -5.1292  -5.0989  -5.0862  -5.0785  -5.0750  -5.0551  -5.0519
    -5.0484  -5.0448  -5.0394  -5.0368  -5.0329  -5.0282  -5.0184  -5.0121
    -4.3869  -4.1015  -3.8668  -3.8003  -3.5918  -3.5067  -3.2575  -2.9746
    -0.8471  -0.7274  -0.6154  -0.5686  -0.5026  -0.4258  -0.3504  -0.2261
    -0.1839  -0.1065  -0.0082   0.1066   0.3172   0.3739   0.4459   0.4662
     0.5344   0.5904   0.6245   0.6496   0.6769   0.7405   0.7547   0.8100
     0.8257   0.9458   0.9619   1.0020   1.0170   1.0683   1.1030   1.1303
     1.1699   1.1904   1.2340   1.2543   1.2786   1.3370   1.3463   1.3656
     1.4063   1.4263   1.4516   1.4794   1.5027   1.5270   1.5529   1.5931
     1.6057   1.6172   1.6422   1.6483   1.6856   1.7166   1.7537   1.7836
     1.8224   1.8489   1.8797   1.9006   1.9124   1.9422   1.9902   2.0316
     2.0719   2.2043   2.2405   2.2884   2.3435   2.5228   2.6035   2.8701

          k =-0.1250 0.3750 0.1250 (132608 PWs)   bands (ev):

   -18.4897 -18.4297 -18.3903 -18.3884 -18.3829 -18.3808 -18.3784 -18.3770
   -18.3768 -18.3723 -18.3698 -18.3695 -18.3663 -18.3654 -18.3645 -18.3622
   -18.3549 -18.3519 -18.3498 -18.3366 -18.3273 -18.3251 -18.3191 -18.3152
   -18.3094 -18.3074 -18.3038 -18.2985 -18.2928 -18.2678 -18.2667 -18.2652
   -18.2376 -18.2045 -18.1939 -18.1855 -18.1836 -18.1765 -18.1762 -18.1690
   -18.1653 -18.1544 -18.1542 -18.0529 -18.0369 -18.0329 -18.0287 -18.0118
    -9.5306  -9.3683  -9.3027  -9.2613  -9.2135  -9.1398  -9.1120  -9.0711
    -9.0290  -9.0107  -8.9735  -8.9339  -8.8990  -8.8585  -8.8444  -8.8210
    -8.8150  -8.7420  -8.6855  -8.6563  -8.6312  -8.5994  -8.4336  -8.3586
    -5.2601  -5.2552  -5.2505  -5.2098  -5.1977  -5.1870  -5.1583  -5.1525
    -5.1423  -5.1285  -5.0989  -5.0868  -5.0785  -5.0753  -5.0548  -5.0529
    -5.0476  -5.0451  -5.0383  -5.0365  -5.0344  -5.0283  -5.0185  -5.0121
    -4.3946  -4.1179  -3.8573  -3.7971  -3.5891  -3.5118  -3.2198  -2.9650
    -0.8603  -0.7859  -0.6014  -0.5698  -0.5236  -0.4607  -0.4076  -0.2824
    -0.1781  -0.1512   0.0570   0.1104   0.3611   0.3969   0.4550   0.4940
     0.5136   0.5947   0.6341   0.6529   0.6788   0.7434   0.7762   0.8148
     0.8507   0.9398   0.9891   1.0053   1.0662   1.0792   1.1099   1.1226
     1.1613   1.2160   1.2482   1.2700   1.2912   1.3174   1.3445   1.3798
     1.3938   1.4286   1.4394   1.4708   1.5004   1.5103   1.5505   1.5732
     1.5922   1.6132   1.6532   1.6628   1.6768   1.7171   1.7521   1.7966
     1.8001   1.8203   1.8700   1.9067   1.9263   1.9587   1.9902   2.0553
     2.1089   2.1840   2.2275   2.2546   2.3977   2.4536   2.7055   2.8485

          k =-0.1250-0.3750-0.1250 (132608 PWs)   bands (ev):

   -18.4897 -18.4297 -18.3903 -18.3884 -18.3829 -18.3808 -18.3784 -18.3770
   -18.3768 -18.3723 -18.3698 -18.3695 -18.3663 -18.3654 -18.3645 -18.3622
   -18.3549 -18.3519 -18.3498 -18.3366 -18.3273 -18.3251 -18.3191 -18.3152
   -18.3094 -18.3074 -18.3038 -18.2985 -18.2928 -18.2678 -18.2667 -18.2652
   -18.2376 -18.2045 -18.1939 -18.1855 -18.1836 -18.1765 -18.1762 -18.1690
   -18.1653 -18.1544 -18.1542 -18.0529 -18.0369 -18.0329 -18.0287 -18.0118
    -9.5305  -9.3687  -9.2946  -9.2745  -9.2092  -9.1424  -9.1018  -9.0728
    -9.0350  -9.0103  -8.9709  -8.9376  -8.8974  -8.8602  -8.8444  -8.8186
    -8.8161  -8.7408  -8.6840  -8.6592  -8.6306  -8.5989  -8.4337  -8.3586
    -5.2600  -5.2552  -5.2506  -5.2098  -5.1976  -5.1870  -5.1583  -5.1525
    -5.1422  -5.1285  -5.0988  -5.0868  -5.0785  -5.0756  -5.0552  -5.0526
    -5.0476  -5.0452  -5.0383  -5.0363  -5.0343  -5.0282  -5.0185  -5.0123
    -4.3960  -4.1117  -3.8610  -3.8077  -3.5705  -3.5168  -3.2268  -2.9621
    -0.8432  -0.7954  -0.6047  -0.5715  -0.5344  -0.4623  -0.4160  -0.2732
    -0.1783  -0.1323   0.0504   0.1026   0.3626   0.3909   0.4554   0.4739
     0.5284   0.5927   0.6377   0.6774   0.6926   0.7383   0.7681   0.8375
     0.8553   0.9134   0.9756   0.9961   1.0666   1.0794   1.1002   1.1345
     1.1866   1.2091   1.2339   1.2526   1.2983   1.3261   1.3373   1.3741
     1.4035   1.4126   1.4588   1.4846   1.4892   1.5207   1.5516   1.5776
     1.6001   1.6151   1.6381   1.6767   1.6797   1.7054   1.7495   1.7653
     1.7999   1.8339   1.8760   1.8958   1.9244   1.9731   2.0039   2.0492
     2.1064   2.1874   2.2131   2.2580   2.3848   2.4581   2.7049   2.8589

          k = 0.1250 0.3750-0.1250 (132608 PWs)   bands (ev):

   -18.4897 -18.4297 -18.3903 -18.3884 -18.3829 -18.3808 -18.3784 -18.3770
   -18.3768 -18.3723 -18.3698 -18.3695 -18.3663 -18.3654 -18.3645 -18.3622
   -18.3549 -18.3519 -18.3498 -18.3366 -18.3273 -18.3251 -18.3191 -18.3152
   -18.3094 -18.3074 -18.3038 -18.2985 -18.2928 -18.2678 -18.2667 -18.2652
   -18.2376 -18.2045 -18.1939 -18.1855 -18.1836 -18.1765 -18.1762 -18.1690
   -18.1653 -18.1544 -18.1542 -18.0529 -18.0369 -18.0329 -18.0287 -18.0118
    -9.5306  -9.3687  -9.3001  -9.2626  -9.2150  -9.1455  -9.1079  -9.0689
    -9.0277  -9.0101  -8.9714  -8.9358  -8.9009  -8.8633  -8.8439  -8.8183
    -8.8138  -8.7417  -8.6840  -8.6594  -8.6302  -8.5995  -8.4327  -8.3591
    -5.2601  -5.2552  -5.2506  -5.2098  -5.1977  -5.1871  -5.1583  -5.1525
    -5.1423  -5.1286  -5.0988  -5.0865  -5.0786  -5.0755  -5.0548  -5.0527
    -5.0474  -5.0455  -5.0382  -5.0369  -5.0341  -5.0283  -5.0184  -5.0122
    -4.3927  -4.1235  -3.8435  -3.8052  -3.5913  -3.5170  -3.2087  -2.9707
    -0.8617  -0.7676  -0.6270  -0.5665  -0.5219  -0.4616  -0.4224  -0.2956
    -0.1712  -0.1116   0.0560   0.1191   0.3523   0.3818   0.4386   0.4922
     0.5159   0.5805   0.6578   0.6763   0.6854   0.7343   0.7654   0.8347
     0.8572   0.9161   0.9795   1.0295   1.0386   1.0665   1.1143   1.1433
     1.1654   1.2133   1.2344   1.2520   1.2853   1.3085   1.3541   1.3644
     1.4132   1.4328   1.4578   1.4872   1.5037   1.5201   1.5496   1.5727
     1.5893   1.6125   1.6247   1.6620   1.6799   1.7268   1.7394   1.7646
     1.8047   1.8413   1.8786   1.9130   1.9433   1.9562   2.0114   2.0456
     2.0870   2.1672   2.2340   2.2709   2.3700   2.4775   2.6910   2.8620

          k = 0.1250-0.3750 0.1250 (132608 PWs)   bands (ev):

   -18.4897 -18.4297 -18.3903 -18.3884 -18.3829 -18.3808 -18.3784 -18.3770
   -18.3768 -18.3723 -18.3698 -18.3695 -18.3663 -18.3654 -18.3645 -18.3622
   -18.3549 -18.3519 -18.3498 -18.3366 -18.3273 -18.3251 -18.3191 -18.3152
   -18.3094 -18.3074 -18.3038 -18.2985 -18.2928 -18.2678 -18.2667 -18.2652
   -18.2376 -18.2045 -18.1939 -18.1855 -18.1836 -18.1765 -18.1762 -18.1690
   -18.1653 -18.1544 -18.1542 -18.0529 -18.0369 -18.0329 -18.0287 -18.0118
    -9.5303  -9.3717  -9.2950  -9.2614  -9.2170  -9.1524  -9.1042  -9.0638
    -9.0314  -9.0086  -8.9748  -8.9366  -8.8953  -8.8609  -8.8486  -8.8175
    -8.8153  -8.7403  -8.6856  -8.6592  -8.6299  -8.5995  -8.4326  -8.3591
    -5.2601  -5.2552  -5.2506  -5.2098  -5.1977  -5.1870  -5.1583  -5.1525
    -5.1422  -5.1286  -5.0988  -5.0865  -5.0785  -5.0755  -5.0552  -5.0525
    -5.0479  -5.0453  -5.0379  -5.0366  -5.0343  -5.0282  -5.0186  -5.0122
    -4.3910  -4.1294  -3.8424  -3.7929  -3.6078  -3.5131  -3.2027  -2.9732
    -0.8404  -0.8019  -0.6066  -0.5789  -0.5299  -0.4511  -0.4152  -0.2913
    -0.1743  -0.1278   0.0601   0.1276   0.3534   0.3880   0.4430   0.4814
     0.5267   0.5853   0.6386   0.6553   0.6867   0.7506   0.7784   0.8133
     0.8495   0.9316   0.9901   1.0024   1.0627   1.0893   1.0988   1.1351
     1.1495   1.2107   1.2259   1.2601   1.3021   1.3333   1.3613   1.3742
     1.4029   1.4333   1.4483   1.4723   1.4903   1.5325   1.5613   1.5662
     1.5832   1.5944   1.6342   1.6607   1.6853   1.7277   1.7416   1.7705
     1.8007   1.8244   1.8780   1.9184   1.9394   1.9535   2.0090   2.0349
     2.1027   2.1730   2.2408   2.2639   2.3791   2.4655   2.6967   2.8660

          k =-0.1250-0.3750 0.3750 (132616 PWs)   bands (ev):

   -18.4897 -18.4297 -18.3903 -18.3884 -18.3829 -18.3808 -18.3784 -18.3770
   -18.3768 -18.3723 -18.3698 -18.3695 -18.3663 -18.3654 -18.3645 -18.3622
   -18.3549 -18.3519 -18.3498 -18.3366 -18.3273 -18.3251 -18.3191 -18.3152
   -18.3094 -18.3074 -18.3038 -18.2985 -18.2928 -18.2678 -18.2667 -18.2652
   -18.2376 -18.2045 -18.1939 -18.1855 -18.1836 -18.1765 -18.1762 -18.1690
   -18.1653 -18.1544 -18.1542 -18.0529 -18.0369 -18.0329 -18.0287 -18.0118
    -9.5186  -9.3873  -9.2928  -9.2567  -9.2317  -9.1494  -9.0992  -9.0615
    -9.0330  -9.0086  -8.9775  -8.9328  -8.9071  -8.8585  -8.8392  -8.8201
    -8.8101  -8.7429  -8.6870  -8.6568  -8.6247  -8.6000  -8.4352  -8.3600
    -5.2601  -5.2550  -5.2505  -5.2095  -5.1977  -5.1870  -5.1583  -5.1526
    -5.1425  -5.1286  -5.0990  -5.0867  -5.0785  -5.0747  -5.0552  -5.0529
    -5.0475  -5.0448  -5.0389  -5.0366  -5.0345  -5.0281  -5.0184  -5.0123
    -4.2682  -4.0979  -3.9160  -3.7750  -3.6532  -3.5016  -3.2977  -3.1629
    -0.7864  -0.6342  -0.5511  -0.4671  -0.3792  -0.3430  -0.2155  -0.1538
    -0.0858   0.0480   0.1512   0.2024   0.2561   0.3613   0.3981   0.4470
     0.4841   0.5066   0.5619   0.6155   0.6657   0.6856   0.7170   0.7698
     0.8022   0.8313   0.8921   0.9270   0.9584   1.0232   1.0544   1.0772
     1.1015   1.1844   1.2128   1.2491   1.2962   1.3228   1.3391   1.3598
     1.4201   1.4554   1.4700   1.4980   1.5211   1.5347   1.5392   1.5614
     1.5799   1.6215   1.6302   1.6530   1.6834   1.7163   1.7465   1.7660
     1.7977   1.8368   1.8673   1.8836   1.9360   1.9658   2.0046   2.0302
     2.0590   2.0988   2.1276   2.2273   2.2692   2.3595   2.4443   2.6254

          k =-0.1250 0.3750-0.3750 (132616 PWs)   bands (ev):

   -18.4897 -18.4297 -18.3903 -18.3884 -18.3829 -18.3808 -18.3784 -18.3770
   -18.3768 -18.3723 -18.3698 -18.3695 -18.3663 -18.3654 -18.3645 -18.3622
   -18.3549 -18.3519 -18.3498 -18.3366 -18.3273 -18.3251 -18.3191 -18.3152
   -18.3094 -18.3074 -18.3038 -18.2985 -18.2928 -18.2678 -18.2667 -18.2652
   -18.2376 -18.2045 -18.1939 -18.1855 -18.1836 -18.1765 -18.1762 -18.1690
   -18.1653 -18.1544 -18.1542 -18.0529 -18.0369 -18.0329 -18.0287 -18.0118
    -9.5183  -9.3891  -9.2879  -9.2598  -9.2301  -9.1572  -9.0883  -9.0654
    -9.0331  -9.0118  -8.9751  -8.9381  -8.8976  -8.8596  -8.8456  -8.8177
    -8.8102  -8.7412  -8.6884  -8.6571  -8.6248  -8.5996  -8.4352  -8.3600
    -5.2601  -5.2550  -5.2505  -5.2095  -5.1977  -5.1869  -5.1583  -5.1526
    -5.1424  -5.1286  -5.0989  -5.0867  -5.0784  -5.0748  -5.0556  -5.0528
    -5.0478  -5.0446  -5.0383  -5.0366  -5.0345  -5.0280  -5.0186  -5.0123
    -4.2663  -4.1007  -3.9157  -3.7741  -3.6557  -3.4988  -3.2971  -3.1638
    -0.7966  -0.6313  -0.5240  -0.4477  -0.4090  -0.3571  -0.2200  -0.1600
    -0.0755   0.0460   0.1482   0.2025   0.2637   0.3564   0.4161   0.4326
     0.4965   0.5378   0.5621   0.5955   0.6593   0.6728   0.7104   0.7616
     0.8093   0.8398   0.8848   0.9137   0.9660   1.0189   1.0561   1.0840
     1.0950   1.2019   1.2095   1.2812   1.2966   1.3170   1.3592   1.3814
     1.3953   1.4398   1.4557   1.4894   1.5094   1.5235   1.5325   1.5757
     1.5871   1.6051   1.6288   1.6507   1.6926   1.7135   1.7507   1.7780
     1.7875   1.8445   1.8664   1.8900   1.9214   1.9595   1.9958   2.0340
     2.0689   2.0969   2.1449   2.2239   2.2695   2.3646   2.4353   2.6322

          k = 0.1250-0.3750-0.3750 (132616 PWs)   bands (ev):

   -18.4897 -18.4297 -18.3903 -18.3884 -18.3829 -18.3808 -18.3784 -18.3770
   -18.3768 -18.3723 -18.3698 -18.3695 -18.3663 -18.3654 -18.3645 -18.3622
   -18.3549 -18.3519 -18.3498 -18.3366 -18.3273 -18.3251 -18.3191 -18.3152
   -18.3094 -18.3074 -18.3038 -18.2985 -18.2928 -18.2678 -18.2667 -18.2652
   -18.2376 -18.2045 -18.1939 -18.1855 -18.1836 -18.1765 -18.1762 -18.1690
   -18.1653 -18.1544 -18.1542 -18.0529 -18.0369 -18.0329 -18.0287 -18.0118
    -9.5187  -9.3866  -9.2944  -9.2620  -9.2238  -9.1498  -9.0920  -9.0693
    -9.0370  -9.0099  -8.9754  -8.9351  -8.9001  -8.8558  -8.8452  -8.8184
    -8.8110  -8.7430  -8.6882  -8.6545  -8.6260  -8.5993  -8.4361  -8.3595
    -5.2601  -5.2550  -5.2504  -5.2095  -5.1977  -5.1869  -5.1583  -5.1526
    -5.1425  -5.1285  -5.0991  -5.0869  -5.0784  -5.0746  -5.0554  -5.0530
    -5.0476  -5.0443  -5.0386  -5.0366  -5.0346  -5.0281  -5.0186  -5.0122
    -4.2789  -4.0446  -3.9767  -3.7641  -3.6573  -3.4327  -3.3791  -3.1390
    -0.7906  -0.6456  -0.5212  -0.4629  -0.4163  -0.3043  -0.2197  -0.1560
    -0.0530   0.0371   0.0520   0.2064   0.2550   0.4091   0.4154   0.4626
     0.4798   0.5288   0.5809   0.6066   0.6429   0.6631   0.6985   0.7680
     0.8067   0.8295   0.9071   0.9245   0.9608   1.0080   1.0613   1.0963
     1.1191   1.1491   1.2091   1.2661   1.3097   1.3307   1.3635   1.3699
     1.4010   1.4303   1.4543   1.4812   1.5055   1.5146   1.5443   1.5744
     1.6003   1.6065   1.6453   1.6605   1.6939   1.7133   1.7495   1.7815
     1.8058   1.8311   1.8594   1.8859   1.9228   1.9491   1.9909   2.0248
     2.0765   2.1061   2.1360   2.2186   2.2630   2.3680   2.4609   2.6109

          k = 0.3750 0.1250-0.3750 (132616 PWs)   bands (ev):

   -18.4897 -18.4297 -18.3903 -18.3884 -18.3829 -18.3808 -18.3784 -18.3770
   -18.3768 -18.3723 -18.3698 -18.3695 -18.3663 -18.3654 -18.3645 -18.3622
   -18.3549 -18.3519 -18.3498 -18.3366 -18.3274 -18.3251 -18.3191 -18.3152
   -18.3094 -18.3074 -18.3038 -18.2985 -18.2928 -18.2678 -18.2667 -18.2652
   -18.2376 -18.2045 -18.1939 -18.1855 -18.1836 -18.1765 -18.1762 -18.1690
   -18.1653 -18.1544 -18.1542 -18.0529 -18.0369 -18.0329 -18.0287 -18.0118
    -9.5135  -9.3906  -9.3236  -9.2466  -9.1925  -9.1574  -9.0885  -9.0769
    -9.0302  -9.0209  -9.0019  -8.9270  -8.8892  -8.8646  -8.8430  -8.8073
    -8.8021  -8.7377  -8.6910  -8.6679  -8.6202  -8.6038  -8.4356  -8.3589
    -5.2600  -5.2551  -5.2507  -5.2096  -5.1971  -5.1871  -5.1580  -5.1533
    -5.1425  -5.1291  -5.0987  -5.0855  -5.0787  -5.0755  -5.0563  -5.0517
    -5.0481  -5.0446  -5.0399  -5.0358  -5.0337  -5.0280  -5.0183  -5.0122
    -4.2597  -4.0498  -3.9613  -3.7782  -3.6634  -3.4541  -3.3727  -3.1640
    -0.7532  -0.6283  -0.4893  -0.4390  -0.3917  -0.2559  -0.1638  -0.1525
    -0.0580   0.0374   0.0768   0.1571   0.2209   0.3732   0.4131   0.4315
     0.4770   0.5151   0.5447   0.5864   0.6348   0.6607   0.7059   0.7253
     0.8090   0.8775   0.8918   0.9427   0.9997   1.0258   1.0633   1.1000
     1.1178   1.1447   1.1849   1.2209   1.2647   1.2940   1.3175   1.3418
     1.4020   1.4339   1.4617   1.4854   1.5086   1.5310   1.5510   1.5746
     1.6014   1.6185   1.6483   1.6649   1.6857   1.7118   1.7613   1.7958
     1.8017   1.8287   1.8589   1.9062   1.9467   1.9692   2.0016   2.0229
     2.0450   2.0776   2.1100   2.2282   2.2525   2.3557   2.4523   2.6426

          k =-0.3750-0.1250-0.3750 (132616 PWs)   bands (ev):

   -18.4897 -18.4297 -18.3903 -18.3884 -18.3829 -18.3808 -18.3784 -18.3770
   -18.3768 -18.3723 -18.3698 -18.3695 -18.3663 -18.3654 -18.3645 -18.3622
   -18.3550 -18.3519 -18.3498 -18.3366 -18.3274 -18.3251 -18.3191 -18.3152
   -18.3094 -18.3074 -18.3038 -18.2985 -18.2928 -18.2678 -18.2667 -18.2652
   -18.2376 -18.2045 -18.1939 -18.1855 -18.1836 -18.1765 -18.1762 -18.1690
   -18.1653 -18.1544 -18.1542 -18.0529 -18.0369 -18.0329 -18.0287 -18.0118
    -9.5133  -9.3912  -9.3255  -9.2424  -9.1971  -9.1467  -9.1016  -9.0688
    -9.0357  -9.0248  -8.9965  -8.9284  -8.8907  -8.8571  -8.8451  -8.8076
    -8.8043  -8.7357  -8.6914  -8.6693  -8.6196  -8.6032  -8.4367  -8.3585
    -5.2599  -5.2550  -5.2508  -5.2097  -5.1971  -5.1870  -5.1580  -5.1534
    -5.1425  -5.1290  -5.0986  -5.0859  -5.0787  -5.0753  -5.0565  -5.0519
    -5.0480  -5.0443  -5.0400  -5.0358  -5.0333  -5.0279  -5.0184  -5.0123
    -4.2607  -4.0531  -3.9605  -3.7658  -3.6634  -3.4586  -3.3867  -3.1545
    -0.7525  -0.6326  -0.4735  -0.4266  -0.3636  -0.2952  -0.1986  -0.1794
    -0.0253   0.0274   0.0678   0.1691   0.2386   0.3716   0.4177   0.4514
     0.4789   0.5068   0.5512   0.5967   0.6178   0.6500   0.7112   0.7304
     0.7939   0.8558   0.9290   0.9425   1.0101   1.0333   1.0603   1.0845
     1.1024   1.1498   1.1701   1.2431   1.2732   1.2961   1.3121   1.3411
     1.3859   1.4261   1.4438   1.4933   1.5175   1.5359   1.5711   1.5859
     1.5921   1.6145   1.6479   1.6648   1.6923   1.7218   1.7486   1.7814
     1.7993   1.8301   1.8813   1.9003   1.9325   1.9681   2.0014   2.0170
     2.0443   2.0646   2.1249   2.2216   2.2686   2.3481   2.4612   2.6317

          k = 0.3750-0.1250 0.3750 (132616 PWs)   bands (ev):

   -18.4897 -18.4297 -18.3903 -18.3884 -18.3829 -18.3808 -18.3784 -18.3770
   -18.3768 -18.3723 -18.3698 -18.3695 -18.3663 -18.3654 -18.3645 -18.3622
   -18.3550 -18.3519 -18.3498 -18.3366 -18.3274 -18.3251 -18.3191 -18.3152
   -18.3094 -18.3074 -18.3038 -18.2985 -18.2928 -18.2678 -18.2667 -18.2652
   -18.2376 -18.2045 -18.1939 -18.1855 -18.1836 -18.1765 -18.1762 -18.1690
   -18.1653 -18.1544 -18.1542 -18.0529 -18.0369 -18.0329 -18.0287 -18.0118
    -9.5132  -9.3927  -9.3219  -9.2429  -9.1937  -9.1625  -9.0925  -9.0682
    -9.0321  -9.0223  -8.9992  -8.9312  -8.8851  -8.8612  -8.8488  -8.8056
    -8.8033  -8.7352  -8.6932  -8.6688  -8.6194  -8.6035  -8.4356  -8.3589
    -5.2600  -5.2551  -5.2508  -5.2097  -5.1972  -5.1870  -5.1580  -5.1534
    -5.1425  -5.1291  -5.0986  -5.0855  -5.0786  -5.0755  -5.0565  -5.0517
    -5.0483  -5.0444  -5.0397  -5.0357  -5.0335  -5.0279  -5.0184  -5.0122
    -4.2565  -4.0628  -3.9501  -3.7763  -3.6694  -3.4546  -3.3672  -3.1663
    -0.7621  -0.6263  -0.4719  -0.4082  -0.3859  -0.3035  -0.2039  -0.1617
    -0.0100   0.0153   0.0869   0.1720   0.2293   0.3799   0.4045   0.4507
     0.4769   0.5133   0.5411   0.5906   0.6098   0.6451   0.7230   0.7396
     0.7849   0.8533   0.9083   0.9502   0.9972   1.0421   1.0568   1.0939
     1.1197   1.1572   1.1851   1.2255   1.2387   1.3044   1.3225   1.3692
     1.4072   1.4256   1.4419   1.4951   1.5018   1.5248   1.5427   1.5697
     1.6065   1.6246   1.6404   1.6617   1.6868   1.7089   1.7605   1.7881
     1.8197   1.8426   1.8716   1.8974   1.9218   1.9640   2.0018   2.0163
     2.0524   2.0768   2.1123   2.2275   2.2696   2.3631   2.4337   2.6508

          k =-0.3750 0.1250 0.3750 (132616 PWs)   bands (ev):

   -18.4897 -18.4297 -18.3903 -18.3884 -18.3829 -18.3808 -18.3784 -18.3770
   -18.3768 -18.3723 -18.3698 -18.3695 -18.3663 -18.3654 -18.3645 -18.3622
   -18.3549 -18.3519 -18.3498 -18.3366 -18.3274 -18.3251 -18.3191 -18.3152
   -18.3094 -18.3074 -18.3038 -18.2985 -18.2928 -18.2678 -18.2667 -18.2652
   -18.2376 -18.2045 -18.1939 -18.1855 -18.1836 -18.1765 -18.1762 -18.1690
   -18.1653 -18.1544 -18.1542 -18.0529 -18.0369 -18.0329 -18.0287 -18.0118
    -9.5134  -9.3904  -9.3265  -9.2424  -9.1924  -9.1521  -9.1022  -9.0694
    -9.0355  -9.0216  -8.9993  -8.9256  -8.8861  -8.8587  -8.8508  -8.8077
    -8.8017  -8.7373  -8.6926  -8.6665  -8.6206  -8.6031  -8.4365  -8.3584
    -5.2600  -5.2551  -5.2507  -5.2096  -5.1972  -5.1870  -5.1580  -5.1534
    -5.1425  -5.1290  -5.0988  -5.0857  -5.0786  -5.0753  -5.0562  -5.0520
    -5.0482  -5.0442  -5.0398  -5.0359  -5.0337  -5.0280  -5.0184  -5.0121
    -4.2612  -4.0447  -3.9718  -3.7602  -3.6677  -3.4502  -3.3923  -3.1550
    -0.7505  -0.6338  -0.4840  -0.4431  -0.3875  -0.2441  -0.1875  -0.1439
    -0.0480   0.0242   0.0738   0.1689   0.2085   0.3738   0.4183   0.4407
     0.4826   0.5046   0.5475   0.5827   0.6175   0.6568   0.6919   0.7339
     0.8185   0.8869   0.9031   0.9706   0.9987   1.0392   1.0467   1.0707
     1.0951   1.1446   1.1958   1.2272   1.2655   1.2841   1.3262   1.3829
     1.4033   1.4173   1.4578   1.4908   1.5077   1.5310   1.5496   1.5652
     1.5783   1.6197   1.6532   1.6794   1.6890   1.7117   1.7527   1.7848
     1.8168   1.8395   1.8664   1.8976   1.9318   1.9632   1.9979   2.0045
     2.0495   2.0832   2.1179   2.2415   2.2484   2.3581   2.4639   2.6250

          k = 0.3750-0.3750 0.1250 (132616 PWs)   bands (ev):

   -18.4897 -18.4297 -18.3903 -18.3884 -18.3829 -18.3808 -18.3784 -18.3770
   -18.3768 -18.3723 -18.3698 -18.3695 -18.3663 -18.3654 -18.3645 -18.3622
   -18.3549 -18.3519 -18.3498 -18.3366 -18.3274 -18.3251 -18.3191 -18.3152
   -18.3094 -18.3074 -18.3038 -18.2985 -18.2928 -18.2678 -18.2667 -18.2652
   -18.2376 -18.2045 -18.1939 -18.1855 -18.1836 -18.1765 -18.1762 -18.1690
   -18.1653 -18.1544 -18.1542 -18.0529 -18.0369 -18.0329 -18.0287 -18.0118
    -9.5186  -9.3802  -9.2911  -9.2722  -9.2272  -9.1538  -9.0913  -9.0671
    -9.0363  -9.0142  -8.9779  -8.9237  -8.8933  -8.8700  -8.8501  -8.8108
    -8.8006  -8.7323  -8.6924  -8.6567  -8.6315  -8.6071  -8.4335  -8.3592
    -5.2601  -5.2551  -5.2506  -5.2097  -5.1977  -5.1870  -5.1583  -5.1524
    -5.1427  -5.1290  -5.0989  -5.0856  -5.0782  -5.0756  -5.0558  -5.0525
    -5.0478  -5.0444  -5.0387  -5.0372  -5.0337  -5.0283  -5.0183  -5.0122
    -4.2850  -4.0586  -3.9051  -3.7757  -3.6751  -3.4907  -3.3365  -3.1646
    -0.8092  -0.6397  -0.5383  -0.3693  -0.3480  -0.3009  -0.2325  -0.1340
    -0.0605   0.0169   0.1190   0.1818   0.2985   0.3635   0.3916   0.4269
     0.4746   0.5317   0.5466   0.5681   0.6119   0.6787   0.7063   0.7612
     0.7892   0.8546   0.9197   0.9448   0.9917   1.0215   1.0643   1.0793
     1.1181   1.1409   1.1818   1.1999   1.2379   1.2769   1.3118   1.3446
     1.3995   1.4471   1.4769   1.4905   1.5183   1.5375   1.5657   1.5874
     1.6097   1.6417   1.6555   1.6790   1.6953   1.7275   1.7421   1.7672
     1.8026   1.8526   1.8668   1.8861   1.9220   1.9648   1.9860   2.0257
     2.0750   2.1127   2.1616   2.1883   2.2445   2.4162   2.4483   2.6257

          k =-0.3750-0.3750-0.1250 (132616 PWs)   bands (ev):

   -18.4897 -18.4297 -18.3903 -18.3884 -18.3829 -18.3808 -18.3784 -18.3770
   -18.3768 -18.3723 -18.3698 -18.3695 -18.3663 -18.3654 -18.3645 -18.3622
   -18.3549 -18.3519 -18.3498 -18.3366 -18.3274 -18.3251 -18.3191 -18.3152
   -18.3094 -18.3074 -18.3038 -18.2985 -18.2928 -18.2678 -18.2667 -18.2652
   -18.2376 -18.2045 -18.1939 -18.1855 -18.1836 -18.1765 -18.1762 -18.1690
   -18.1653 -18.1544 -18.1542 -18.0529 -18.0369 -18.0329 -18.0287 -18.0118
    -9.5188  -9.3779  -9.2991  -9.2725  -9.2209  -9.1456  -9.0951  -9.0721
    -9.0377  -9.0167  -8.9743  -8.9221  -8.8976  -8.8679  -8.8482  -8.8106
    -8.8017  -8.7326  -8.6905  -8.6578  -8.6316  -8.6064  -8.4345  -8.3587
    -5.2600  -5.2551  -5.2506  -5.2097  -5.1977  -5.1870  -5.1584  -5.1524
    -5.1427  -5.1288  -5.0989  -5.0859  -5.0783  -5.0756  -5.0556  -5.0527
    -5.0476  -5.0442  -5.0389  -5.0374  -5.0334  -5.0283  -5.0183  -5.0124
    -4.2913  -4.0189  -3.9596  -3.7449  -3.6808  -3.4633  -3.3860  -3.1465
    -0.8188  -0.6085  -0.5388  -0.3712  -0.3412  -0.2960  -0.2713  -0.1594
    -0.0325   0.0324   0.1038   0.1505   0.2767   0.3778   0.4166   0.4560
     0.4836   0.5290   0.5504   0.5915   0.6189   0.6371   0.7087   0.7438
     0.8188   0.8563   0.8779   0.9574   0.9932   1.0234   1.0549   1.0862
     1.1341   1.1523   1.1751   1.2118   1.2305   1.2683   1.3013   1.3324
     1.3915   1.4475   1.4746   1.4946   1.5269   1.5415   1.5601   1.6011
     1.6076   1.6338   1.6604   1.6831   1.6967   1.7232   1.7494   1.7756
     1.8033   1.8350   1.8597   1.9004   1.9335   1.9689   1.9814   2.0260
     2.0551   2.1028   2.1713   2.2104   2.2266   2.4041   2.4591   2.6176

          k = 0.3750 0.3750-0.1250 (132616 PWs)   bands (ev):

   -18.4897 -18.4297 -18.3903 -18.3884 -18.3829 -18.3808 -18.3784 -18.3770
   -18.3768 -18.3723 -18.3698 -18.3695 -18.3663 -18.3654 -18.3645 -18.3622
   -18.3549 -18.3519 -18.3498 -18.3366 -18.3274 -18.3251 -18.3191 -18.3152
   -18.3094 -18.3074 -18.3038 -18.2985 -18.2928 -18.2678 -18.2667 -18.2652
   -18.2376 -18.2045 -18.1939 -18.1855 -18.1836 -18.1765 -18.1762 -18.1690
   -18.1653 -18.1544 -18.1542 -18.0529 -18.0369 -18.0329 -18.0287 -18.0118
    -9.5190  -9.3773  -9.2978  -9.2718  -9.2246  -9.1481  -9.0914  -9.0769
    -9.0314  -9.0142  -8.9754  -8.9237  -8.8945  -8.8765  -8.8448  -8.8103
    -8.8003  -8.7341  -8.6903  -8.6573  -8.6315  -8.6071  -8.4336  -8.3592
    -5.2601  -5.2552  -5.2505  -5.2097  -5.1977  -5.1870  -5.1583  -5.1524
    -5.1428  -5.1289  -5.0989  -5.0856  -5.0783  -5.0756  -5.0554  -5.0526
    -5.0474  -5.0445  -5.0390  -5.0375  -5.0335  -5.0284  -5.0182  -5.0123
    -4.2898  -4.0199  -3.9584  -3.7387  -3.7015  -3.4535  -3.3733  -3.1563
    -0.8189  -0.6300  -0.5226  -0.3684  -0.3212  -0.3130  -0.2690  -0.1523
    -0.0417   0.0442   0.1075   0.1543   0.2641   0.3721   0.4181   0.4497
     0.4807   0.5272   0.5505   0.5800   0.6247   0.6550   0.6953   0.7597
     0.8282   0.8423   0.8676   0.9534   0.9932   1.0209   1.0774   1.1040
     1.1151   1.1375   1.1646   1.1966   1.2257   1.2960   1.3170   1.3402
     1.3944   1.4329   1.4725   1.4972   1.5129   1.5404   1.5748   1.5921
     1.6143   1.6336   1.6516   1.6819   1.7027   1.7210   1.7571   1.7669
     1.7938   1.8445   1.8503   1.9065   1.9438   1.9681   1.9915   2.0226
     2.0613   2.1038   2.1520   2.2048   2.2414   2.4183   2.4476   2.6186

          k =-0.3750 0.3750 0.1250 (132616 PWs)   bands (ev):

   -18.4897 -18.4297 -18.3903 -18.3884 -18.3829 -18.3808 -18.3784 -18.3770
   -18.3768 -18.3723 -18.3698 -18.3695 -18.3663 -18.3654 -18.3645 -18.3622
   -18.3549 -18.3519 -18.3498 -18.3366 -18.3274 -18.3251 -18.3191 -18.3152
   -18.3094 -18.3074 -18.3038 -18.2985 -18.2928 -18.2678 -18.2667 -18.2652
   -18.2376 -18.2045 -18.1939 -18.1855 -18.1836 -18.1765 -18.1762 -18.1690
   -18.1653 -18.1544 -18.1542 -18.0529 -18.0369 -18.0329 -18.0287 -18.0118
    -9.5188  -9.3776  -9.3060  -9.2586  -9.2276  -9.1429  -9.1058  -9.0701
    -9.0331  -9.0127  -8.9800  -8.9178  -8.8970  -8.8701  -8.8464  -8.8135
    -8.7999  -8.7342  -8.6918  -8.6545  -8.6325  -8.6070  -8.4344  -8.3587
    -5.2601  -5.2551  -5.2505  -5.2097  -5.1977  -5.1870  -5.1583  -5.1524
    -5.1428  -5.1288  -5.0990  -5.0859  -5.0783  -5.0753  -5.0553  -5.0530
    -5.0476  -5.0441  -5.0388  -5.0376  -5.0336  -5.0284  -5.0183  -5.0122
    -4.2874  -4.0556  -3.9109  -3.7676  -3.6626  -3.5064  -3.3460  -3.1550
    -0.8237  -0.6072  -0.5319  -0.4073  -0.3242  -0.3002  -0.2359  -0.1309
    -0.0651   0.0044   0.1074   0.1758   0.3075   0.3642   0.4126   0.4347
     0.4750   0.5195   0.5532   0.5630   0.6007   0.6538   0.7172   0.7497
     0.8230   0.8630   0.9254   0.9447   0.9839   1.0179   1.0660   1.0894
     1.1023   1.1366   1.1804   1.2287   1.2385   1.2819   1.3055   1.3369
     1.3906   1.4345   1.4728   1.4879   1.5002   1.5491   1.5781   1.5910
     1.6103   1.6311   1.6528   1.6729   1.7213   1.7363   1.7609   1.7665
     1.7916   1.8515   1.8719   1.8839   1.9219   1.9487   1.9683   2.0169
     2.0695   2.1235   2.1752   2.1982   2.2622   2.4006   2.4532   2.6068

          k =-0.3750-0.3750 0.3750 (132612 PWs)   bands (ev):

   -18.4897 -18.4297 -18.3903 -18.3884 -18.3829 -18.3808 -18.3784 -18.3770
   -18.3768 -18.3723 -18.3698 -18.3695 -18.3663 -18.3654 -18.3645 -18.3622
   -18.3549 -18.3519 -18.3498 -18.3366 -18.3274 -18.3251 -18.3191 -18.3152
   -18.3094 -18.3074 -18.3038 -18.2985 -18.2928 -18.2678 -18.2667 -18.2652
   -18.2376 -18.2045 -18.1939 -18.1855 -18.1836 -18.1765 -18.1762 -18.1690
   -18.1653 -18.1544 -18.1542 -18.0529 -18.0369 -18.0329 -18.0287 -18.0118
    -9.5076  -9.3859  -9.3143  -9.2525  -9.2306  -9.1641  -9.0946  -9.0513
    -9.0363  -9.0144  -8.9798  -8.9302  -8.9063  -8.8611  -8.8405  -8.8070
    -8.7984  -8.7405  -8.6913  -8.6552  -8.6268  -8.6067  -8.4354  -8.3602
    -5.2601  -5.2550  -5.2506  -5.2095  -5.1977  -5.1870  -5.1581  -5.1524
    -5.1428  -5.1291  -5.0989  -5.0858  -5.0783  -5.0750  -5.0562  -5.0528
    -5.0469  -5.0444  -5.0391  -5.0369  -5.0342  -5.0280  -5.0180  -5.0122
    -4.1664  -3.9778  -3.8888  -3.7871  -3.7096  -3.5866  -3.4513  -3.3313
    -0.5162  -0.4586  -0.3675  -0.3038  -0.2262  -0.1617  -0.1470  -0.0672
    -0.0371   0.0944   0.1561   0.1943   0.2397   0.2557   0.3670   0.4142
     0.4333   0.4891   0.5117   0.5343   0.5825   0.6164   0.6311   0.7065
     0.8064   0.8468   0.8875   0.9187   0.9522   0.9905   1.0101   1.0426
     1.0668   1.0777   1.1439   1.1847   1.2207   1.2573   1.2807   1.3452
     1.3771   1.4413   1.4508   1.4964   1.5160   1.5374   1.5504   1.5891
     1.6140   1.6324   1.6579   1.6831   1.6993   1.7359   1.7531   1.7617
     1.7914   1.8366   1.8415   1.8825   1.9515   1.9657   1.9914   2.0073
     2.0272   2.0468   2.0724   2.1180   2.1612   2.1913   2.2217   2.4234

          k =-0.3750 0.3750-0.3750 (132612 PWs)   bands (ev):

   -18.4897 -18.4297 -18.3903 -18.3884 -18.3829 -18.3808 -18.3784 -18.3770
   -18.3768 -18.3723 -18.3698 -18.3695 -18.3663 -18.3654 -18.3645 -18.3622
   -18.3549 -18.3519 -18.3498 -18.3366 -18.3274 -18.3251 -18.3191 -18.3152
   -18.3094 -18.3074 -18.3038 -18.2985 -18.2928 -18.2678 -18.2667 -18.2652
   -18.2376 -18.2045 -18.1939 -18.1855 -18.1836 -18.1765 -18.1762 -18.1690
   -18.1653 -18.1544 -18.1542 -18.0529 -18.0369 -18.0329 -18.0287 -18.0118
    -9.5072  -9.3883  -9.3106  -9.2531  -9.2286  -9.1723  -9.0815  -9.0599
    -9.0328  -9.0193  -8.9779  -8.9333  -8.9006  -8.8557  -8.8500  -8.8036
    -8.8009  -8.7381  -8.6932  -8.6554  -8.6271  -8.6060  -8.4354  -8.3602
    -5.2601  -5.2550  -5.2507  -5.2095  -5.1978  -5.1870  -5.1582  -5.1525
    -5.1427  -5.1291  -5.0989  -5.0857  -5.0782  -5.0751  -5.0565  -5.0527
    -5.0473  -5.0442  -5.0387  -5.0368  -5.0343  -5.0279  -5.0181  -5.0121
    -4.1611  -3.9999  -3.8538  -3.8037  -3.7172  -3.5817  -3.4465  -3.3349
    -0.5381  -0.4278  -0.3524  -0.2896  -0.2450  -0.1985  -0.1692  -0.0725
     0.0014   0.0726   0.1715   0.1997   0.2531   0.2927   0.3770   0.3946
     0.4358   0.4591   0.5233   0.5410   0.5650   0.5849   0.6415   0.7030
     0.7968   0.8648   0.9023   0.9119   0.9492   0.9798   1.0117   1.0414
     1.0689   1.1159   1.1342   1.1774   1.2262   1.2532   1.2890   1.3541
     1.3794   1.4300   1.4503   1.4823   1.5073   1.5378   1.5582   1.5866
     1.6100   1.6290   1.6468   1.6732   1.6931   1.7237   1.7465   1.7894
     1.8197   1.8427   1.8641   1.8856   1.9085   1.9473   1.9897   2.0157
     2.0303   2.0645   2.0862   2.1039   2.1520   2.2037   2.2115   2.4310

          k = 0.3750-0.3750-0.3750 (132612 PWs)   bands (ev):

   -18.4897 -18.4297 -18.3903 -18.3884 -18.3829 -18.3808 -18.3784 -18.3770
   -18.3768 -18.3723 -18.3698 -18.3695 -18.3663 -18.3654 -18.3645 -18.3622
   -18.3549 -18.3519 -18.3498 -18.3366 -18.3274 -18.3251 -18.3191 -18.3152
   -18.3094 -18.3074 -18.3038 -18.2985 -18.2928 -18.2678 -18.2667 -18.2652
   -18.2376 -18.2045 -18.1939 -18.1855 -18.1836 -18.1765 -18.1762 -18.1690
   -18.1653 -18.1544 -18.1542 -18.0529 -18.0369 -18.0329 -18.0287 -18.0118
    -9.5075  -9.3856  -9.3189  -9.2467  -9.2281  -9.1665  -9.0943  -9.0538
    -9.0391  -9.0143  -8.9812  -8.9268  -8.9032  -8.8573  -8.8465  -8.8062
    -8.7991  -8.7402  -8.6927  -8.6535  -8.6277  -8.6059  -8.4364  -8.3597
    -5.2601  -5.2550  -5.2507  -5.2095  -5.1978  -5.1870  -5.1582  -5.1524
    -5.1428  -5.1289  -5.0990  -5.0860  -5.0782  -5.0748  -5.0561  -5.0530
    -5.0472  -5.0439  -5.0388  -5.0373  -5.0341  -5.0280  -5.0181  -5.0121
    -4.1696  -3.9591  -3.9197  -3.7777  -3.6828  -3.5691  -3.5147  -3.3063
    -0.5080  -0.4800  -0.3463  -0.2746  -0.2515  -0.1952  -0.1080  -0.0780
    -0.0138   0.0591   0.1053   0.2041   0.2264   0.3316   0.3890   0.4187
     0.4445   0.4658   0.4899   0.5396   0.5555   0.5865   0.6477   0.6987
     0.8262   0.8714   0.8964   0.9395   0.9480   0.9656   1.0154   1.0288
     1.0562   1.0844   1.1565   1.1793   1.2224   1.2631   1.2776   1.3576
     1.3816   1.4242   1.4415   1.4868   1.5214   1.5424   1.5587   1.5868
     1.5976   1.6306   1.6556   1.6804   1.7112   1.7328   1.7601   1.7763
     1.8070   1.8209   1.8607   1.8913   1.9112   1.9352   1.9756   1.9998
     2.0182   2.0765   2.1046   2.1201   2.1668   2.1938   2.2240   2.4077

     highest occupied level (ev):     3.1088

!    total energy              =   -2256.30232538 Ry
     estimated scf accuracy    <          4.2E-11 Ry

     The total energy is the sum of the following terms:
     one-electron contribution =    -989.35111743 Ry
     hartree contribution      =     622.57254989 Ry
     xc contribution           =    -647.47685033 Ry
     ewald contribution        =   -1242.04690751 Ry

     convergence has been achieved in  15 iterations

     Forces acting on atoms (cartesian axes, Ry/au):

     atom    1 type  1   force =    -0.00298261   -0.00822367   -0.00771823
     atom    2 type  2   force =    -0.00040461    0.02259847    0.00517633
     atom    3 type  3   force =     0.00393063   -0.00056330    0.00364954
     atom    4 type  3   force =     0.00011916    0.00144168   -0.01156631
     atom    5 type  3   force =    -0.00106736    0.00400062   -0.00300589
     atom    6 type  1   force =    -0.00265433   -0.00014395    0.00240989
     atom    7 type  2   force =     0.00740283    0.00687796   -0.00765560
     atom    8 type  3   force =     0.00028041   -0.00446664   -0.00777035
     atom    9 type  3   force =     0.00087835    0.00101358    0.00947011
     atom   10 type  3   force =    -0.00359779    0.00896879   -0.00575947
     atom   11 type  1   force =    -0.00245564    0.00011276    0.00016989
     atom   12 type  2   force =     0.00988064   -0.01875149   -0.00825722
     atom   13 type  3   force =     0.00994949   -0.00247363    0.00418298
     atom   14 type  3   force =    -0.00220393   -0.00253968    0.00650390
     atom   15 type  3   force =    -0.00139601   -0.01571391    0.00640941
     atom   16 type  1   force =    -0.00295813    0.00845159   -0.00181494
     atom   17 type  2   force =    -0.01272151    0.00747153    0.01167989
     atom   18 type  3   force =     0.00332761    0.01119112    0.01176186
     atom   19 type  3   force =    -0.00026305   -0.00111062   -0.00108334
     atom   20 type  3   force =     0.00008919   -0.01536780   -0.00006286
     atom   21 type  1   force =     0.00197873   -0.01229301   -0.00929076
     atom   22 type  2   force =     0.00506602   -0.01061812   -0.00131470
     atom   23 type  3   force =     0.00119502    0.00418142   -0.00047526
     atom   24 type  3   force =    -0.00989084    0.00691198   -0.01006966
     atom   25 type  3   force =     0.00337057   -0.00998105   -0.00284201
     atom   26 type  1   force =     0.00435712   -0.00365924    0.00043426
     atom   27 type  2   force =    -0.00397239   -0.00414834   -0.01097134
     atom   28 type  3   force =     0.00246803    0.00278739   -0.00009595
     atom   29 type  3   force =     0.00036963    0.00162312    0.00740184
     atom   30 type  3   force =     0.00506157   -0.01648203    0.00110250
     atom   31 type  1   force =     0.00835281   -0.00062733   -0.00597556
     atom   32 type  2   force =    -0.00318846    0.01594267   -0.00546241
     atom   33 type  3   force =    -0.01502639    0.00043417   -0.00383008
     atom   34 type  3   force =    -0.00201556    0.00057742   -0.00015447
     atom   35 type  3   force =    -0.00377348   -0.00055721    0.00534683
     atom   36 type  1   force =     0.00327945    0.00283021    0.00273188
     atom   37 type  2   force =     0.00700929    0.00481158    0.00137945
     atom   38 type  3   force =     0.00095156    0.00866642    0.00751843
     atom   39 type  3   force =    -0.00046473    0.00390964    0.00377914
     atom   40 type  3   force =    -0.00828127    0.00291687    0.01406829

     Total force =     0.076328     Total SCF correction =     0.000022


     Computing stress (Cartesian axis) and pressure

          total   stress  (Ry/bohr**3)                   (kbar)     P=       -7.98
  -0.00005767  -0.00000146   0.00000014           -8.48       -0.21        0.02
  -0.00000146  -0.00004647   0.00000325           -0.21       -6.84        0.48
   0.00000014   0.00000325  -0.00005864            0.02        0.48       -8.63

 
     init_run     :     20.12s CPU     17.38s WALL (       1 calls)
     electrons    :    202.56s CPU    215.00s WALL (       1 calls)
     forces       :      8.82s CPU      4.04s WALL (       1 calls)
     stress       :     31.82s CPU     31.50s WALL (       1 calls)

     Called by init_run:
     wfcinit      :     12.25s CPU     14.33s WALL (       1 calls)
                                       14.33s GPU  (       1 calls)
     potinit      :      4.55s CPU      1.39s WALL (       1 calls)
     hinit0       :      2.78s CPU      0.99s WALL (       1 calls)

     Called by electrons:
     c_bands      :    121.54s CPU    172.43s WALL (      16 calls)
     sum_band     :     22.30s CPU     21.20s WALL (      16 calls)
                                       21.20s GPU  (      16 calls)
     v_of_rho     :     54.45s CPU     16.60s WALL (      16 calls)
     mix_rho      :      6.26s CPU      4.89s WALL (      16 calls)

     Called by c_bands:
     init_us_2    :      2.47s CPU      3.21s WALL (     280 calls)
                                        3.21s GPU  (     280 calls)
     cegterg      :     82.08s CPU    130.11s WALL (     128 calls)

     Called by *egterg:
     cdiaghg      :     14.19s CPU     26.92s WALL (     666 calls)
                                       26.89s GPU  (     666 calls)
     h_psi        :     55.59s CPU     74.59s WALL (     682 calls)
                                       74.14s GPU  (     682 calls)
     g_psi        :      0.00s CPU      0.37s WALL (     546 calls)
                                        0.36s GPU  (     546 calls)

     Called by h_psi:
     h_psi:calbec :      0.28s CPU     10.19s WALL (     682 calls)
                                       10.18s GPU  (     682 calls)
     vloc_psi     :     40.55s CPU     54.26s WALL (     682 calls)
                                       53.33s GPU  (     682 calls)
     add_vuspsi   :      0.34s CPU     10.07s WALL (     682 calls)
                                       10.06s GPU  (     682 calls)

     General routines
     calbec       :      0.28s CPU      0.52s WALL (     722 calls)
     fft          :     25.65s CPU      6.58s WALL (     185 calls)
                                        0.00s GPU  (       6 calls)
     ffts         :      2.62s CPU      0.68s WALL (      16 calls)
     fftw         :      0.64s CPU     62.84s WALL (   10564 calls)
                                       46.97s GPU  (   10564 calls)
 
     Parallel routines
 
     PWSCF        :   4m23.98s CPU   4m28.70s WALL

 
   This run was terminated on:  23:34:53  22Apr2021            

=------------------------------------------------------------------------------=
   JOB DONE.
=------------------------------------------------------------------------------=
