
     Program PWSCF v.6.7MaX starts on 22Apr2021 at 23:57:16 

     This program is part of the open-source Quantum ESPRESSO suite
     for quantum simulation of materials; please cite
         "P. Giannozzi et al., J. Phys.:Condens. Matter 21 395502 (2009);
         "P. Giannozzi et al., J. Phys.:Condens. Matter 29 465901 (2017);
         "P. Giannozzi et al., J. Chem. Phys. 152 154105 (2020);
          URL http://www.quantum-espresso.org", 
     in publications or presentations arising from this work. More details at
     http://www.quantum-espresso.org/quote

     Parallel version (MPI & OpenMP), running on      16 processor cores
     Number of MPI processes:                 4
     Threads/MPI process:                     4

     MPI processes distributed on     1 nodes
     K-points division:     npool     =       4
     Reading input from ESP_39.pwi
Warning: card &CELL ignored
Warning: card / ignored

     Current dimensions of program PWSCF are:
     Max number of different atomic species (ntypx) = 10
     Max number of k-points (npk) =  40000
     Max angular momentum in pseudopotentials (lmaxx) =  3
     Message from routine read_pp_mesh:
     mesh size missing, using the one in header
     Message from routine read_pp_mesh:
     mesh size missing, using the one in header
     Message from routine read_pp_mesh:
     mesh size missing, using the one in header

     Subspace diagonalization in iterative solution of the eigenvalue problem:
     a serial algorithm will be used

 
     G-vector sticks info
     --------------------
     sticks:   dense  smooth     PW     G-vecs:    dense   smooth      PW
     Sum       12589   12589   3289              1061107  1061107  140905
 
     Using Slab Decomposition
 


     bravais-lattice index     =            0
     lattice parameter (alat)  =      23.7585  a.u.
     unit-cell volume          =   13410.8736 (a.u.)^3
     number of atoms/cell      =           40
     number of atomic types    =            3
     number of electrons       =       352.00
     number of Kohn-Sham states=          176
     kinetic-energy cutoff     =      70.0000  Ry
     charge density cutoff     =     280.0000  Ry
     scf convergence threshold =      1.0E-10
     mixing beta               =       0.7000
     number of iterations used =            8  plain     mixing
     Exchange-correlation= PBESOL
                           (   1   4  10   8   0   0   0)

     GPU acceleration is ACTIVE.


     celldm(1)=  23.758500  celldm(2)=   0.000000  celldm(3)=   0.000000
     celldm(4)=   0.000000  celldm(5)=   0.000000  celldm(6)=   0.000000

     crystal axes: (cart. coord. in units of alat)
               a(1) = (   1.000000   0.000000   0.000000 )  
               a(2) = (   0.000000   1.000000   0.000000 )  
               a(3) = (   0.000000   0.000000   1.000000 )  

     reciprocal axes: (cart. coord. in units 2 pi/alat)
               b(1) = (  1.000000  0.000000  0.000000 )  
               b(2) = (  0.000000  1.000000  0.000000 )  
               b(3) = (  0.000000  0.000000  1.000000 )  


     PseudoPot. # 1 for Cs read from file:
     /m100/home/userexternal/lmonacel/espresso/pseudo/Cs-nc-pbesol.upf
     MD5 check sum: 9d2f2206a14dc5b3b3f3fbfae186bed4
     Pseudo is Norm-conserving + core correction, Zval =  9.0
     Generated using ONCVPSP code by D. R. Hamann
     Using radial grid of 2384 points,  8 beta functions with: 
                l(1) =   0
                l(2) =   0
                l(3) =   1
                l(4) =   1
                l(5) =   2
                l(6) =   2
                l(7) =   3
                l(8) =   3

     PseudoPot. # 2 for Sn read from file:
     /m100/home/userexternal/lmonacel/espresso/pseudo/Sn-nc-pbesol.upf
     MD5 check sum: c2995d571af40102bfea7461443d92cf
     Pseudo is Norm-conserving + core correction, Zval = 14.0
     Generated using ONCVPSP code by D. R. Hamann
     Using radial grid of 1628 points,  6 beta functions with: 
                l(1) =   0
                l(2) =   0
                l(3) =   1
                l(4) =   1
                l(5) =   2
                l(6) =   2

     PseudoPot. # 3 for I  read from file:
     /m100/home/userexternal/lmonacel/espresso/pseudo/I-nc-pbesol.upf
     MD5 check sum: 80ed5ceb2eb9c553cfb6760a299d9c5b
     Pseudo is Norm-conserving + core correction, Zval =  7.0
     Generated using ONCVPSP code by D. R. Hamann
     Using radial grid of 1182 points,  6 beta functions with: 
                l(1) =   0
                l(2) =   0
                l(3) =   1
                l(4) =   1
                l(5) =   2
                l(6) =   2

     atomic species   valence    mass     pseudopotential
        Cs             9.00   132.90545     Cs( 1.00)
        Sn            14.00   118.71000     Sn( 1.00)
        I              7.00   126.90447     I ( 1.00)

     No symmetry found



   Cartesian axes

     site n.     atom                  positions (alat units)
         1           Cs  tau(   1) = (   0.2707320   0.2433490   0.2588435  )
         2           Sn  tau(   2) = (  -0.0181026   0.0018434   0.0089048  )
         3           I   tau(   3) = (   0.2531242  -0.0139259   0.0081964  )
         4           I   tau(   4) = (  -0.0020580   0.0303897   0.2578837  )
         5           I   tau(   5) = (   0.0453395   0.2581091  -0.0168742  )
         6           Cs  tau(   6) = (   0.2230129   0.2567685   0.7516062  )
         7           Sn  tau(   7) = (  -0.0121407  -0.0178620   0.5095917  )
         8           I   tau(   8) = (   0.2447663  -0.0430194   0.5352080  )
         9           I   tau(   9) = (  -0.0234980   0.0282800   0.7460844  )
        10           I   tau(  10) = (   0.0175097   0.2504576   0.4905722  )
        11           Cs  tau(  11) = (   0.2477703   0.7490105   0.2430914  )
        12           Sn  tau(  12) = (   0.0024855   0.5157956   0.0059228  )
        13           I   tau(  13) = (   0.2435793   0.5281646  -0.0046587  )
        14           I   tau(  14) = (   0.0148346   0.5183195   0.2482165  )
        15           I   tau(  15) = (   0.0296146   0.7496199  -0.0403666  )
        16           Cs  tau(  16) = (   0.2522322   0.7527258   0.7345398  )
        17           Sn  tau(  17) = (   0.0144831   0.4912739   0.4984579  )
        18           I   tau(  18) = (   0.2479052   0.5143262   0.5066639  )
        19           I   tau(  19) = (  -0.0257275   0.4839689   0.7498862  )
        20           I   tau(  20) = (  -0.0342372   0.7386418   0.5254686  )
        21           Cs  tau(  21) = (   0.7407049   0.2599911   0.2605611  )
        22           Sn  tau(  22) = (   0.4762925  -0.0271742   0.0249252  )
        23           I   tau(  23) = (   0.7496962   0.0046516   0.0285159  )
        24           I   tau(  24) = (   0.4710096  -0.0311817   0.2616427  )
        25           I   tau(  25) = (   0.4891956   0.2466657   0.0276726  )
        26           Cs  tau(  26) = (   0.7766520   0.2605694   0.7299313  )
        27           Sn  tau(  27) = (   0.4894488  -0.0109400   0.5042474  )
        28           I   tau(  28) = (   0.7455297   0.0085711   0.5063864  )
        29           I   tau(  29) = (   0.5039344   0.0143542   0.7536203  )
        30           I   tau(  30) = (   0.4669572   0.2525488   0.4871731  )
        31           Cs  tau(  31) = (   0.7379630   0.7442479   0.2586086  )
        32           Sn  tau(  32) = (   0.5215478   0.4771968  -0.0139893  )
        33           I   tau(  33) = (   0.7538028   0.4983416   0.0294508  )
        34           I   tau(  34) = (   0.4434543   0.4922118   0.2370966  )
        35           I   tau(  35) = (   0.5177693   0.7403605   0.0035672  )
        36           Cs  tau(  36) = (   0.7650349   0.7814780   0.7459967  )
        37           Sn  tau(  37) = (   0.5140273   0.4925358   0.4803225  )
        38           I   tau(  38) = (   0.7535799   0.4835582   0.4658897  )
        39           I   tau(  39) = (   0.5346058   0.5167340   0.7282333  )
        40           I   tau(  40) = (   0.5557295   0.7517725   0.4648918  )

     number of k points=    32
                       cart. coord. in units 2pi/alat
        k(    1) = (   0.1250000   0.1250000   0.1250000), wk =   0.0625000
        k(    2) = (   0.1250000   0.1250000   0.3750000), wk =   0.0625000
        k(    3) = (   0.1250000   0.3750000   0.3750000), wk =   0.0625000
        k(    4) = (   0.3750000   0.3750000   0.3750000), wk =   0.0625000
        k(    5) = (  -0.1250000  -0.1250000   0.1250000), wk =   0.0625000
        k(    6) = (  -0.1250000   0.1250000  -0.1250000), wk =   0.0625000
        k(    7) = (   0.1250000  -0.1250000  -0.1250000), wk =   0.0625000
        k(    8) = (  -0.1250000  -0.1250000   0.3750000), wk =   0.0625000
        k(    9) = (  -0.1250000   0.1250000  -0.3750000), wk =   0.0625000
        k(   10) = (   0.1250000  -0.1250000  -0.3750000), wk =   0.0625000
        k(   11) = (   0.3750000  -0.1250000   0.1250000), wk =   0.0625000
        k(   12) = (  -0.3750000  -0.1250000  -0.1250000), wk =   0.0625000
        k(   13) = (   0.3750000   0.1250000  -0.1250000), wk =   0.0625000
        k(   14) = (  -0.3750000   0.1250000   0.1250000), wk =   0.0625000
        k(   15) = (  -0.1250000   0.3750000   0.1250000), wk =   0.0625000
        k(   16) = (  -0.1250000  -0.3750000  -0.1250000), wk =   0.0625000
        k(   17) = (   0.1250000   0.3750000  -0.1250000), wk =   0.0625000
        k(   18) = (   0.1250000  -0.3750000   0.1250000), wk =   0.0625000
        k(   19) = (  -0.1250000  -0.3750000   0.3750000), wk =   0.0625000
        k(   20) = (  -0.1250000   0.3750000  -0.3750000), wk =   0.0625000
        k(   21) = (   0.1250000  -0.3750000  -0.3750000), wk =   0.0625000
        k(   22) = (   0.3750000   0.1250000  -0.3750000), wk =   0.0625000
        k(   23) = (  -0.3750000  -0.1250000  -0.3750000), wk =   0.0625000
        k(   24) = (   0.3750000  -0.1250000   0.3750000), wk =   0.0625000
        k(   25) = (  -0.3750000   0.1250000   0.3750000), wk =   0.0625000
        k(   26) = (   0.3750000  -0.3750000   0.1250000), wk =   0.0625000
        k(   27) = (  -0.3750000  -0.3750000  -0.1250000), wk =   0.0625000
        k(   28) = (   0.3750000   0.3750000  -0.1250000), wk =   0.0625000
        k(   29) = (  -0.3750000   0.3750000   0.1250000), wk =   0.0625000
        k(   30) = (  -0.3750000  -0.3750000   0.3750000), wk =   0.0625000
        k(   31) = (  -0.3750000   0.3750000  -0.3750000), wk =   0.0625000
        k(   32) = (   0.3750000  -0.3750000  -0.3750000), wk =   0.0625000

     Dense  grid:  1061107 G-vectors     FFT dimensions: ( 128, 128, 128)

     Estimated max dynamical RAM per process >       6.82 GB

     Estimated total dynamical RAM >      27.27 GB

     Initial potential from superposition of free atoms

     starting charge  351.69472, renormalised to  352.00000
     Starting wfcs are  208 randomized atomic wfcs

     total cpu time spent up to now is       17.8 secs

     Self-consistent Calculation

     iteration #  1     ecut=    70.00 Ry     beta= 0.70
     Davidson diagonalization with overlap
     ethr =  1.00E-02,  avg # of iterations =  2.0

     Threshold (ethr) on eigenvalues was too large:
     Diagonalizing with lowered threshold

     Davidson diagonalization with overlap
     ethr =  2.22E-04,  avg # of iterations =  4.0

     total cpu time spent up to now is       38.8 secs

     total energy              =   -2256.00723883 Ry
     estimated scf accuracy    <       0.68052982 Ry

     iteration #  2     ecut=    70.00 Ry     beta= 0.70
     Davidson diagonalization with overlap
     ethr =  1.93E-04,  avg # of iterations =  3.1

     total cpu time spent up to now is       51.6 secs

     total energy              =   -2256.21138678 Ry
     estimated scf accuracy    <       0.34608939 Ry

     iteration #  3     ecut=    70.00 Ry     beta= 0.70
     Davidson diagonalization with overlap
     ethr =  9.83E-05,  avg # of iterations =  3.0

     total cpu time spent up to now is       63.4 secs

     total energy              =   -2256.27925253 Ry
     estimated scf accuracy    <       0.02350829 Ry

     iteration #  4     ecut=    70.00 Ry     beta= 0.70
     Davidson diagonalization with overlap
     ethr =  6.68E-06,  avg # of iterations =  4.1

     total cpu time spent up to now is       76.8 secs

     total energy              =   -2256.28752117 Ry
     estimated scf accuracy    <       0.00522073 Ry

     iteration #  5     ecut=    70.00 Ry     beta= 0.70
     Davidson diagonalization with overlap
     ethr =  1.48E-06,  avg # of iterations =  3.0

     total cpu time spent up to now is       88.9 secs

     total energy              =   -2256.28853957 Ry
     estimated scf accuracy    <       0.00128181 Ry

     iteration #  6     ecut=    70.00 Ry     beta= 0.70
     Davidson diagonalization with overlap
     ethr =  3.64E-07,  avg # of iterations =  3.3

     total cpu time spent up to now is      101.2 secs

     total energy              =   -2256.28877333 Ry
     estimated scf accuracy    <       0.00013655 Ry

     iteration #  7     ecut=    70.00 Ry     beta= 0.70
     Davidson diagonalization with overlap
     ethr =  3.88E-08,  avg # of iterations =  5.0

     total cpu time spent up to now is      115.6 secs

     total energy              =   -2256.28882983 Ry
     estimated scf accuracy    <       0.00002358 Ry

     iteration #  8     ecut=    70.00 Ry     beta= 0.70
     Davidson diagonalization with overlap
     ethr =  6.70E-09,  avg # of iterations =  4.0

     total cpu time spent up to now is      129.0 secs

     total energy              =   -2256.28883811 Ry
     estimated scf accuracy    <       0.00000509 Ry

     iteration #  9     ecut=    70.00 Ry     beta= 0.70
     Davidson diagonalization with overlap
     ethr =  1.45E-09,  avg # of iterations =  4.0

     total cpu time spent up to now is      142.2 secs

     total energy              =   -2256.28883970 Ry
     estimated scf accuracy    <       0.00000069 Ry

     iteration # 10     ecut=    70.00 Ry     beta= 0.70
     Davidson diagonalization with overlap
     ethr =  1.97E-10,  avg # of iterations =  4.8

     total cpu time spent up to now is      156.7 secs

     total energy              =   -2256.28883998 Ry
     estimated scf accuracy    <       0.00000018 Ry

     iteration # 11     ecut=    70.00 Ry     beta= 0.70
     Davidson diagonalization with overlap
     ethr =  5.12E-11,  avg # of iterations =  5.0

     total cpu time spent up to now is      171.0 secs

     total energy              =   -2256.28884005 Ry
     estimated scf accuracy    <       0.00000003 Ry

     iteration # 12     ecut=    70.00 Ry     beta= 0.70
     Davidson diagonalization with overlap
     ethr =  7.34E-12,  avg # of iterations =  6.6

     total cpu time spent up to now is      188.2 secs

     total energy              =   -2256.28884007 Ry
     estimated scf accuracy    <       0.00000002 Ry

     iteration # 13     ecut=    70.00 Ry     beta= 0.70
     Davidson diagonalization with overlap
     ethr =  4.32E-12,  avg # of iterations =  3.1

     total cpu time spent up to now is      200.7 secs

     total energy              =   -2256.28884008 Ry
     estimated scf accuracy    <          1.1E-09 Ry

     iteration # 14     ecut=    70.00 Ry     beta= 0.70
     Davidson diagonalization with overlap
     ethr =  3.03E-13,  avg # of iterations =  6.2

     total cpu time spent up to now is      218.2 secs

     total energy              =   -2256.28884008 Ry
     estimated scf accuracy    <          2.4E-10 Ry

     iteration # 15     ecut=    70.00 Ry     beta= 0.70
     Davidson diagonalization with overlap
     ethr =  1.00E-13,  avg # of iterations =  3.5

     total cpu time spent up to now is      230.9 secs

     End of self-consistent calculation

          k = 0.1250 0.1250 0.1250 (132670 PWs)   bands (ev):

   -18.4672 -18.3531 -18.3469 -18.3341 -18.3324 -18.3319 -18.3313 -18.3305
   -18.3279 -18.3246 -18.3239 -18.3214 -18.3200 -18.3160 -18.3149 -18.3136
   -18.3133 -18.3108 -18.3104 -18.3064 -18.3053 -18.3018 -18.2775 -18.2688
   -18.2632 -18.2518 -18.2437 -18.2157 -18.2045 -18.1984 -18.1954 -18.1931
   -18.1907 -18.1884 -18.1836 -18.1800 -18.1786 -18.1781 -18.1765 -18.1761
   -18.1640 -18.1556 -18.1492 -18.0982 -18.0879 -18.0848 -18.0736 -18.0730
    -9.4772  -9.3306  -9.2774  -9.2131  -9.1567  -9.0794  -9.0676  -9.0343
    -9.0112  -9.0046  -8.9689  -8.9516  -8.8995  -8.8855  -8.8775  -8.8629
    -8.7865  -8.7527  -8.7146  -8.7005  -8.6473  -8.5320  -8.4912  -8.4204
    -5.2428  -5.2309  -5.2265  -5.1516  -5.1399  -5.1379  -5.1305  -5.1276
    -5.1211  -5.1151  -5.1099  -5.1088  -5.1061  -5.0997  -5.0965  -5.0901
    -5.0870  -5.0858  -5.0849  -5.0796  -5.0674  -4.9736  -4.9609  -4.9548
    -4.4133  -3.9568  -3.9139  -3.8364  -3.4243  -3.3689  -3.3050  -2.8009
    -0.7175  -0.6908  -0.6365  -0.6233  -0.5886  -0.5312  -0.4884  -0.4200
    -0.3372  -0.2895  -0.2262  -0.1033   0.4351   0.4660   0.4971   0.5872
     0.6107   0.6720   0.7149   0.7471   0.8032   0.8688   0.8865   0.9165
     0.9654   1.0130   1.0372   1.0722   1.1187   1.1439   1.1610   1.1825
     1.2131   1.2250   1.2476   1.2734   1.2907   1.3256   1.3471   1.3765
     1.3930   1.4179   1.4354   1.4645   1.4739   1.5170   1.5363   1.5578
     1.5726   1.5834   1.6004   1.6357   1.6473   1.6797   1.7317   1.7403
     1.7574   1.8206   1.8399   1.9385   1.9714   2.0188   2.0731   2.0938
     2.1594   2.2274   2.2492   2.3422   2.5404   2.7003   2.8059   3.1127

          k = 0.1250 0.1250 0.3750 (132608 PWs)   bands (ev):

   -18.4672 -18.3531 -18.3469 -18.3341 -18.3324 -18.3319 -18.3313 -18.3305
   -18.3279 -18.3246 -18.3239 -18.3214 -18.3200 -18.3160 -18.3149 -18.3136
   -18.3133 -18.3108 -18.3104 -18.3064 -18.3053 -18.3018 -18.2775 -18.2688
   -18.2632 -18.2518 -18.2437 -18.2156 -18.2045 -18.1984 -18.1954 -18.1931
   -18.1907 -18.1884 -18.1836 -18.1800 -18.1786 -18.1781 -18.1765 -18.1761
   -18.1640 -18.1556 -18.1492 -18.0982 -18.0879 -18.0848 -18.0736 -18.0730
    -9.4691  -9.3333  -9.2843  -9.1980  -9.1666  -9.0955  -9.0652  -9.0431
    -9.0149  -9.0030  -8.9744  -8.9457  -8.9015  -8.8805  -8.8699  -8.8564
    -8.7883  -8.7566  -8.7000  -8.6853  -8.6573  -8.5408  -8.4933  -8.4206
    -5.2426  -5.2309  -5.2263  -5.1510  -5.1400  -5.1379  -5.1297  -5.1273
    -5.1201  -5.1137  -5.1110  -5.1090  -5.1058  -5.0996  -5.0967  -5.0910
    -5.0873  -5.0868  -5.0853  -5.0797  -5.0673  -4.9739  -4.9610  -4.9554
    -4.2958  -4.0712  -3.8361  -3.7466  -3.5698  -3.4755  -3.2348  -2.9943
    -0.6997  -0.6700  -0.6348  -0.5940  -0.5691  -0.4846  -0.3314  -0.2649
    -0.1438  -0.0608   0.0144   0.1681   0.4231   0.4741   0.5157   0.5243
     0.5601   0.5728   0.6353   0.6445   0.6930   0.7176   0.7968   0.8296
     0.8559   0.9024   0.9778   1.0357   1.0655   1.0976   1.1245   1.1624
     1.1868   1.2156   1.2431   1.2486   1.2726   1.3087   1.3498   1.3562
     1.3679   1.4074   1.4410   1.4787   1.5115   1.5291   1.5403   1.5622
     1.5811   1.6093   1.6350   1.6578   1.6929   1.7125   1.7517   1.7782
     1.7992   1.8268   1.8510   1.9015   1.9377   1.9563   1.9860   2.0282
     2.1091   2.1756   2.2457   2.2903   2.3819   2.5056   2.7276   2.8464

          k = 0.1250 0.3750 0.3750 (132616 PWs)   bands (ev):

   -18.4672 -18.3531 -18.3469 -18.3341 -18.3324 -18.3319 -18.3313 -18.3305
   -18.3279 -18.3246 -18.3239 -18.3214 -18.3200 -18.3160 -18.3149 -18.3136
   -18.3133 -18.3108 -18.3104 -18.3064 -18.3053 -18.3018 -18.2775 -18.2688
   -18.2632 -18.2518 -18.2437 -18.2157 -18.2045 -18.1984 -18.1954 -18.1931
   -18.1907 -18.1884 -18.1836 -18.1800 -18.1786 -18.1781 -18.1765 -18.1761
   -18.1640 -18.1556 -18.1492 -18.0982 -18.0879 -18.0848 -18.0736 -18.0730
    -9.4644  -9.3147  -9.2851  -9.2257  -9.1731  -9.1019  -9.0766  -9.0463
    -9.0145  -8.9916  -8.9708  -8.9432  -8.9096  -8.8709  -8.8570  -8.8352
    -8.8040  -8.7521  -8.7018  -8.6868  -8.6620  -8.5396  -8.4939  -8.4226
    -5.2425  -5.2306  -5.2263  -5.1513  -5.1407  -5.1384  -5.1290  -5.1275
    -5.1191  -5.1134  -5.1119  -5.1084  -5.1058  -5.0988  -5.0977  -5.0913
    -5.0875  -5.0866  -5.0851  -5.0800  -5.0675  -4.9739  -4.9609  -4.9554
    -4.1860  -3.9878  -3.9331  -3.7674  -3.5976  -3.4284  -3.3398  -3.1660
    -0.6775  -0.6323  -0.6090  -0.5465  -0.3497  -0.2981  -0.1559  -0.0863
    -0.0218   0.0183   0.1422   0.1901   0.3318   0.3985   0.4462   0.4972
     0.5224   0.5477   0.5651   0.6090   0.6604   0.6847   0.7342   0.7846
     0.8206   0.8624   0.8942   0.9253   0.9854   1.0146   1.0429   1.1159
     1.1576   1.1841   1.2119   1.2432   1.2772   1.2943   1.3446   1.3525
     1.3754   1.4134   1.4532   1.5005   1.5202   1.5424   1.5555   1.5779
     1.6175   1.6377   1.6417   1.6932   1.7291   1.7381   1.7537   1.7658
     1.8258   1.8438   1.8603   1.8876   1.9138   1.9459   1.9779   1.9919
     2.0115   2.0925   2.1790   2.2184   2.2907   2.4550   2.4915   2.6553

          k = 0.3750 0.3750 0.3750 (132612 PWs)   bands (ev):

   -18.4672 -18.3531 -18.3469 -18.3341 -18.3324 -18.3318 -18.3313 -18.3306
   -18.3280 -18.3246 -18.3239 -18.3214 -18.3200 -18.3160 -18.3149 -18.3136
   -18.3133 -18.3108 -18.3104 -18.3064 -18.3053 -18.3018 -18.2775 -18.2688
   -18.2632 -18.2518 -18.2437 -18.2156 -18.2045 -18.1984 -18.1954 -18.1931
   -18.1907 -18.1884 -18.1836 -18.1800 -18.1786 -18.1781 -18.1765 -18.1761
   -18.1640 -18.1556 -18.1492 -18.0982 -18.0879 -18.0848 -18.0736 -18.0730
    -9.4594  -9.3038  -9.2723  -9.2168  -9.1961  -9.1362  -9.1159  -9.0566
    -9.0160  -8.9746  -8.9402  -8.9141  -8.8931  -8.8664  -8.8560  -8.8453
    -8.8144  -8.7548  -8.7010  -8.6884  -8.6635  -8.5400  -8.4946  -8.4238
    -5.2426  -5.2307  -5.2264  -5.1512  -5.1404  -5.1386  -5.1294  -5.1268
    -5.1192  -5.1136  -5.1123  -5.1081  -5.1076  -5.0990  -5.0965  -5.0914
    -5.0877  -5.0872  -5.0844  -5.0793  -5.0671  -4.9737  -4.9610  -4.9550
    -4.0588  -3.9181  -3.8362  -3.7785  -3.6444  -3.5538  -3.4911  -3.3510
    -0.4544  -0.3761  -0.3515  -0.3230  -0.2225  -0.1744  -0.1425  -0.0679
    -0.0190   0.0450   0.0965   0.2166   0.2749   0.3302   0.3961   0.4233
     0.4677   0.5158   0.5509   0.5847   0.5950   0.6798   0.6980   0.7537
     0.8065   0.8589   0.8981   0.9232   0.9611   1.0221   1.0315   1.0596
     1.0983   1.1224   1.1356   1.1573   1.1974   1.2382   1.2711   1.3054
     1.3473   1.3883   1.4373   1.4736   1.5340   1.5460   1.5786   1.6007
     1.6371   1.6611   1.6916   1.7126   1.7300   1.7516   1.7643   1.7922
     1.8099   1.8360   1.8742   1.8975   1.9021   1.9139   1.9436   1.9768
     2.0089   2.0436   2.1002   2.1048   2.1849   2.2400   2.3555   2.4157

          k =-0.1250-0.1250 0.1250 (132670 PWs)   bands (ev):

   -18.4672 -18.3531 -18.3469 -18.3341 -18.3324 -18.3319 -18.3313 -18.3305
   -18.3279 -18.3246 -18.3239 -18.3214 -18.3200 -18.3160 -18.3149 -18.3136
   -18.3133 -18.3108 -18.3104 -18.3064 -18.3053 -18.3018 -18.2775 -18.2688
   -18.2632 -18.2518 -18.2437 -18.2157 -18.2045 -18.1984 -18.1954 -18.1931
   -18.1907 -18.1884 -18.1836 -18.1800 -18.1786 -18.1781 -18.1765 -18.1761
   -18.1640 -18.1556 -18.1492 -18.0982 -18.0879 -18.0848 -18.0736 -18.0730
    -9.4779  -9.3264  -9.2770  -9.2191  -9.1586  -9.0813  -9.0607  -9.0343
    -9.0111  -9.0007  -8.9733  -8.9503  -8.9002  -8.8874  -8.8765  -8.8632
    -8.7877  -8.7531  -8.7123  -8.7011  -8.6469  -8.5322  -8.4913  -8.4204
    -5.2427  -5.2309  -5.2266  -5.1512  -5.1398  -5.1381  -5.1307  -5.1277
    -5.1215  -5.1147  -5.1101  -5.1090  -5.1063  -5.1000  -5.0962  -5.0902
    -5.0871  -5.0858  -5.0846  -5.0796  -5.0674  -4.9736  -4.9610  -4.9548
    -4.4146  -3.9547  -3.9135  -3.8339  -3.4284  -3.3664  -3.3090  -2.7994
    -0.7127  -0.6870  -0.6558  -0.6156  -0.5638  -0.5218  -0.5027  -0.4363
    -0.3356  -0.2837  -0.2216  -0.1251   0.4396   0.4671   0.4915   0.5983
     0.6175   0.6564   0.7287   0.7579   0.8001   0.8447   0.8769   0.9240
     0.9861   1.0255   1.0403   1.0742   1.1119   1.1244   1.1583   1.1775
     1.2034   1.2200   1.2468   1.2715   1.2948   1.3198   1.3467   1.3779
     1.4115   1.4221   1.4395   1.4701   1.4926   1.5203   1.5432   1.5572
     1.5652   1.5809   1.6048   1.6197   1.6455   1.6911   1.7233   1.7289
     1.7568   1.8109   1.8328   1.9337   1.9760   2.0265   2.0650   2.1152
     2.1664   2.2083   2.2580   2.3412   2.5910   2.6484   2.7877   3.1264

          k =-0.1250 0.1250-0.1250 (132670 PWs)   bands (ev):

   -18.4672 -18.3531 -18.3469 -18.3341 -18.3324 -18.3319 -18.3313 -18.3305
   -18.3279 -18.3246 -18.3239 -18.3214 -18.3200 -18.3160 -18.3149 -18.3136
   -18.3133 -18.3108 -18.3104 -18.3064 -18.3053 -18.3018 -18.2775 -18.2688
   -18.2632 -18.2518 -18.2437 -18.2157 -18.2045 -18.1984 -18.1954 -18.1931
   -18.1907 -18.1884 -18.1836 -18.1800 -18.1786 -18.1781 -18.1765 -18.1761
   -18.1640 -18.1556 -18.1492 -18.0982 -18.0879 -18.0848 -18.0736 -18.0730
    -9.4772  -9.3305  -9.2788  -9.2111  -9.1544  -9.0865  -9.0624  -9.0373
    -9.0120  -9.0028  -8.9678  -8.9540  -8.8991  -8.8853  -8.8748  -8.8629
    -8.7854  -8.7567  -8.7125  -8.7015  -8.6463  -8.5325  -8.4913  -8.4202
    -5.2428  -5.2309  -5.2265  -5.1516  -5.1399  -5.1382  -5.1297  -5.1276
    -5.1218  -5.1149  -5.1106  -5.1086  -5.1059  -5.1002  -5.0965  -5.0900
    -5.0868  -5.0857  -5.0841  -5.0802  -5.0675  -4.9737  -4.9610  -4.9547
    -4.4137  -3.9533  -3.9168  -3.8378  -3.4141  -3.3637  -3.3203  -2.8003
    -0.7089  -0.6960  -0.6447  -0.6193  -0.5677  -0.5282  -0.4950  -0.4362
    -0.3308  -0.2965  -0.2286  -0.1057   0.4450   0.4539   0.5001   0.5822
     0.6164   0.6708   0.7253   0.7575   0.8038   0.8325   0.9020   0.9240
     0.9706   1.0372   1.0437   1.0622   1.0822   1.1174   1.1720   1.1819
     1.2174   1.2263   1.2480   1.2747   1.2859   1.3170   1.3623   1.3864
     1.4013   1.4201   1.4417   1.4705   1.4850   1.5088   1.5323   1.5473
     1.5799   1.5863   1.6128   1.6300   1.6479   1.6823   1.7222   1.7366
     1.7558   1.8181   1.8368   1.9343   1.9838   2.0182   2.0702   2.0892
     2.1828   2.1951   2.2373   2.3319   2.5675   2.7014   2.7991   3.1194

          k = 0.1250-0.1250-0.1250 (132670 PWs)   bands (ev):

   -18.4672 -18.3531 -18.3469 -18.3341 -18.3324 -18.3319 -18.3313 -18.3305
   -18.3279 -18.3246 -18.3239 -18.3214 -18.3200 -18.3160 -18.3149 -18.3136
   -18.3133 -18.3108 -18.3104 -18.3064 -18.3053 -18.3018 -18.2775 -18.2688
   -18.2632 -18.2518 -18.2437 -18.2157 -18.2045 -18.1984 -18.1954 -18.1931
   -18.1907 -18.1884 -18.1836 -18.1800 -18.1786 -18.1781 -18.1765 -18.1761
   -18.1640 -18.1556 -18.1492 -18.0982 -18.0879 -18.0848 -18.0736 -18.0730
    -9.4780  -9.3268  -9.2771  -9.2177  -9.1575  -9.0812  -9.0628  -9.0334
    -9.0125  -9.0033  -8.9701  -8.9550  -8.8975  -8.8855  -8.8747  -8.8645
    -8.7836  -8.7550  -8.7158  -8.7004  -8.6471  -8.5321  -8.4913  -8.4203
    -5.2428  -5.2309  -5.2266  -5.1512  -5.1397  -5.1379  -5.1307  -5.1276
    -5.1217  -5.1147  -5.1103  -5.1090  -5.1063  -5.1002  -5.0964  -5.0897
    -5.0868  -5.0856  -5.0840  -5.0800  -5.0677  -4.9737  -4.9609  -4.9547
    -4.4145  -3.9586  -3.9087  -3.8359  -3.4197  -3.3750  -3.3085  -2.7988
    -0.7117  -0.6997  -0.6437  -0.6277  -0.5706  -0.5132  -0.4954  -0.4273
    -0.3408  -0.2854  -0.2122  -0.1336   0.4408   0.4649   0.4931   0.5978
     0.6065   0.6632   0.7337   0.7579   0.7916   0.8513   0.8885   0.9396
     0.9607   1.0042   1.0493   1.0623   1.1064   1.1377   1.1477   1.1716
     1.1992   1.2303   1.2645   1.2823   1.3030   1.3112   1.3594   1.3864
     1.4170   1.4330   1.4436   1.4720   1.4873   1.5070   1.5335   1.5461
     1.5682   1.5885   1.6052   1.6202   1.6363   1.6778   1.7194   1.7329
     1.7550   1.8139   1.8365   1.9346   1.9892   2.0288   2.0595   2.0975
     2.1570   2.2194   2.2471   2.3465   2.6059   2.6473   2.7775   3.1370

          k =-0.1250-0.1250 0.3750 (132608 PWs)   bands (ev):

   -18.4672 -18.3531 -18.3469 -18.3341 -18.3324 -18.3319 -18.3313 -18.3305
   -18.3279 -18.3246 -18.3239 -18.3214 -18.3200 -18.3160 -18.3149 -18.3136
   -18.3133 -18.3108 -18.3104 -18.3064 -18.3053 -18.3018 -18.2775 -18.2688
   -18.2632 -18.2518 -18.2437 -18.2156 -18.2045 -18.1984 -18.1954 -18.1931
   -18.1907 -18.1884 -18.1836 -18.1800 -18.1786 -18.1781 -18.1765 -18.1761
   -18.1640 -18.1556 -18.1492 -18.0982 -18.0879 -18.0848 -18.0736 -18.0730
    -9.4701  -9.3278  -9.2866  -9.2029  -9.1681  -9.0958  -9.0586  -9.0441
    -9.0145  -9.0006  -8.9776  -8.9446  -8.9019  -8.8822  -8.8685  -8.8575
    -8.7894  -8.7567  -8.6991  -8.6847  -8.6571  -8.5410  -8.4934  -8.4206
    -5.2425  -5.2309  -5.2264  -5.1505  -5.1399  -5.1381  -5.1300  -5.1272
    -5.1207  -5.1130  -5.1112  -5.1093  -5.1061  -5.0998  -5.0963  -5.0912
    -5.0872  -5.0867  -5.0851  -5.0798  -5.0672  -4.9739  -4.9610  -4.9554
    -4.2992  -4.0652  -3.8403  -3.7377  -3.5784  -3.4715  -3.2419  -2.9903
    -0.6978  -0.6614  -0.6398  -0.5996  -0.5733  -0.4574  -0.3429  -0.2697
    -0.1418  -0.0665   0.0069   0.1495   0.4474   0.4747   0.4954   0.5365
     0.5527   0.5842   0.6098   0.6634   0.6985   0.7388   0.7951   0.8243
     0.8657   0.9161   0.9740   1.0247   1.0565   1.0849   1.1138   1.1555
     1.1717   1.2214   1.2456   1.2651   1.2857   1.3070   1.3325   1.3590
     1.3775   1.4243   1.4380   1.4806   1.5066   1.5284   1.5441   1.5626
     1.5841   1.6063   1.6145   1.6679   1.6823   1.7400   1.7590   1.7661
     1.7792   1.8272   1.8498   1.8965   1.9403   1.9501   1.9940   2.0381
     2.1281   2.1708   2.2383   2.2825   2.4157   2.4770   2.7063   2.8597

          k =-0.1250 0.1250-0.3750 (132608 PWs)   bands (ev):

   -18.4672 -18.3531 -18.3469 -18.3341 -18.3324 -18.3319 -18.3313 -18.3305
   -18.3279 -18.3246 -18.3239 -18.3214 -18.3200 -18.3160 -18.3149 -18.3136
   -18.3133 -18.3108 -18.3104 -18.3064 -18.3053 -18.3018 -18.2775 -18.2688
   -18.2632 -18.2518 -18.2437 -18.2156 -18.2045 -18.1984 -18.1954 -18.1931
   -18.1907 -18.1884 -18.1836 -18.1800 -18.1786 -18.1781 -18.1765 -18.1761
   -18.1640 -18.1556 -18.1492 -18.0982 -18.0879 -18.0848 -18.0736 -18.0730
    -9.4691  -9.3334  -9.2853  -9.1961  -9.1636  -9.0999  -9.0650  -9.0474
    -9.0150  -8.9993  -8.9724  -8.9468  -8.9020  -8.8810  -8.8664  -8.8573
    -8.7871  -8.7607  -8.6980  -8.6864  -8.6562  -8.5412  -8.4934  -8.4205
    -5.2426  -5.2309  -5.2263  -5.1510  -5.1396  -5.1386  -5.1289  -5.1272
    -5.1205  -5.1139  -5.1114  -5.1089  -5.1057  -5.1002  -5.0968  -5.0908
    -5.0868  -5.0865  -5.0847  -5.0803  -5.0674  -4.9739  -4.9610  -4.9553
    -4.2967  -4.0705  -3.8364  -3.7475  -3.5591  -3.4831  -3.2380  -2.9931
    -0.6759  -0.6638  -0.6587  -0.6081  -0.5635  -0.4734  -0.3273  -0.2751
    -0.1409  -0.0709   0.0067   0.1702   0.4375   0.4681   0.4993   0.5400
     0.5582   0.5840   0.6209   0.6535   0.6983   0.7246   0.8034   0.8187
     0.8732   0.8967   0.9685   1.0091   1.0504   1.1038   1.1278   1.1587
     1.1838   1.2094   1.2477   1.2652   1.2884   1.3078   1.3422   1.3629
     1.3913   1.4096   1.4319   1.4772   1.4912   1.5251   1.5492   1.5617
     1.5868   1.6139   1.6302   1.6620   1.6969   1.7277   1.7480   1.7654
     1.7838   1.8336   1.8536   1.8936   1.9277   1.9686   1.9885   2.0314
     2.1229   2.1822   2.2081   2.2787   2.3967   2.5048   2.7342   2.8474

          k = 0.1250-0.1250-0.3750 (132608 PWs)   bands (ev):

   -18.4672 -18.3531 -18.3469 -18.3341 -18.3324 -18.3319 -18.3313 -18.3305
   -18.3279 -18.3246 -18.3239 -18.3214 -18.3200 -18.3160 -18.3149 -18.3136
   -18.3133 -18.3108 -18.3104 -18.3064 -18.3053 -18.3018 -18.2775 -18.2688
   -18.2632 -18.2518 -18.2437 -18.2156 -18.2045 -18.1984 -18.1954 -18.1931
   -18.1907 -18.1884 -18.1836 -18.1800 -18.1786 -18.1781 -18.1765 -18.1761
   -18.1640 -18.1556 -18.1492 -18.0982 -18.0879 -18.0848 -18.0736 -18.0730
    -9.4701  -9.3283  -9.2862  -9.2015  -9.1672  -9.0938  -9.0657  -9.0444
    -9.0159  -8.9992  -8.9737  -8.9482  -8.9007  -8.8801  -8.8685  -8.8576
    -8.7852  -8.7596  -8.7013  -8.6836  -8.6581  -8.5407  -8.4933  -8.4205
    -5.2426  -5.2309  -5.2264  -5.1506  -5.1394  -5.1383  -5.1301  -5.1270
    -5.1205  -5.1135  -5.1112  -5.1094  -5.1061  -5.1001  -5.0967  -5.0907
    -5.0869  -5.0862  -5.0847  -5.0802  -5.0676  -4.9740  -4.9610  -4.9553
    -4.2987  -4.0680  -3.8381  -3.7366  -3.5731  -3.4811  -3.2381  -2.9906
    -0.6871  -0.6709  -0.6486  -0.6035  -0.5594  -0.4735  -0.3306  -0.2695
    -0.1546  -0.0492   0.0158   0.1420   0.4342   0.4785   0.5013   0.5291
     0.5523   0.5870   0.6222   0.6651   0.6998   0.7318   0.7954   0.8117
     0.8737   0.8989   0.9845   1.0130   1.0628   1.0901   1.1266   1.1442
     1.1634   1.2167   1.2408   1.2666   1.2947   1.3102   1.3398   1.3860
     1.3924   1.4184   1.4309   1.4688   1.4975   1.5213   1.5449   1.5703
     1.5914   1.6154   1.6329   1.6509   1.6833   1.7120   1.7286   1.7689
     1.7994   1.8312   1.8457   1.9055   1.9351   1.9650   1.9854   2.0313
     2.1068   2.2032   2.2447   2.2883   2.3881   2.4815   2.6982   2.8743

          k = 0.3750-0.1250 0.1250 (132608 PWs)   bands (ev):

   -18.4672 -18.3531 -18.3469 -18.3341 -18.3324 -18.3318 -18.3313 -18.3306
   -18.3279 -18.3246 -18.3239 -18.3214 -18.3200 -18.3160 -18.3149 -18.3136
   -18.3133 -18.3108 -18.3104 -18.3064 -18.3053 -18.3018 -18.2775 -18.2688
   -18.2632 -18.2518 -18.2437 -18.2156 -18.2045 -18.1984 -18.1954 -18.1931
   -18.1907 -18.1884 -18.1836 -18.1800 -18.1786 -18.1781 -18.1765 -18.1761
   -18.1640 -18.1556 -18.1492 -18.0982 -18.0879 -18.0848 -18.0736 -18.0730
    -9.4671  -9.3369  -9.2657  -9.2048  -9.1702  -9.1358  -9.0742  -9.0340
    -9.0181  -8.9938  -8.9510  -8.9230  -8.8990  -8.8796  -8.8699  -8.8540
    -8.7982  -8.7587  -8.7098  -8.7035  -8.6482  -8.5334  -8.4924  -8.4221
    -5.2426  -5.2308  -5.2263  -5.1511  -5.1396  -5.1380  -5.1285  -5.1269
    -5.1212  -5.1159  -5.1103  -5.1083  -5.1065  -5.0996  -5.0977  -5.0905
    -5.0867  -5.0859  -5.0847  -5.0808  -5.0679  -4.9737  -4.9612  -4.9546
    -4.2814  -4.0748  -3.8032  -3.7648  -3.5403  -3.5255  -3.2608  -3.0142
    -0.6723  -0.6246  -0.5811  -0.5271  -0.4730  -0.4305  -0.3095  -0.2535
    -0.1964  -0.0995  -0.0317   0.0828   0.3687   0.4765   0.4956   0.5395
     0.5524   0.5607   0.6126   0.6493   0.6701   0.7065   0.7476   0.7968
     0.8154   0.8695   0.9964   1.0162   1.0521   1.1001   1.1464   1.1862
     1.2180   1.2372   1.2572   1.2774   1.2906   1.3210   1.3495   1.3718
     1.3812   1.4031   1.4441   1.4754   1.5032   1.5169   1.5436   1.5750
     1.5877   1.6083   1.6314   1.6505   1.6723   1.7044   1.7307   1.7457
     1.7837   1.7939   1.8364   1.8871   1.9104   1.9683   2.0208   2.0550
     2.0922   2.1607   2.2376   2.3224   2.3907   2.4978   2.7323   2.8991

          k =-0.3750-0.1250-0.1250 (132608 PWs)   bands (ev):

   -18.4672 -18.3531 -18.3469 -18.3341 -18.3324 -18.3318 -18.3313 -18.3306
   -18.3279 -18.3246 -18.3239 -18.3214 -18.3200 -18.3160 -18.3149 -18.3136
   -18.3133 -18.3108 -18.3104 -18.3064 -18.3053 -18.3018 -18.2775 -18.2688
   -18.2632 -18.2518 -18.2437 -18.2156 -18.2045 -18.1984 -18.1954 -18.1931
   -18.1907 -18.1884 -18.1836 -18.1800 -18.1786 -18.1781 -18.1765 -18.1761
   -18.1640 -18.1556 -18.1492 -18.0982 -18.0879 -18.0848 -18.0736 -18.0730
    -9.4671  -9.3369  -9.2644  -9.2056  -9.1749  -9.1316  -9.0755  -9.0297
    -9.0156  -8.9996  -8.9512  -8.9178  -8.9030  -8.8802  -8.8701  -8.8540
    -8.8017  -8.7534  -8.7110  -8.7036  -8.6489  -8.5330  -8.4922  -8.4223
    -5.2426  -5.2308  -5.2264  -5.1512  -5.1397  -5.1377  -5.1294  -5.1270
    -5.1207  -5.1157  -5.1099  -5.1085  -5.1066  -5.0992  -5.0975  -5.0906
    -5.0872  -5.0861  -5.0854  -5.0800  -5.0678  -4.9737  -4.9612  -4.9547
    -4.2807  -4.0754  -3.8036  -3.7627  -3.5502  -3.5221  -3.2536  -3.0164
    -0.6756  -0.6457  -0.5616  -0.5206  -0.4717  -0.4361  -0.3142  -0.2706
    -0.1749  -0.0864  -0.0215   0.0710   0.3654   0.4675   0.5018   0.5242
     0.5581   0.5721   0.5971   0.6534   0.6869   0.6976   0.7462   0.7880
     0.8132   0.8705   0.9881   1.0475   1.0636   1.0835   1.1576   1.1958
     1.2118   1.2333   1.2511   1.2719   1.2922   1.3172   1.3392   1.3593
     1.3754   1.4047   1.4484   1.4639   1.5157   1.5390   1.5494   1.5662
     1.5755   1.6072   1.6340   1.6455   1.6700   1.7143   1.7293   1.7421
     1.7832   1.8037   1.8445   1.8942   1.9066   1.9606   2.0083   2.0418
     2.1026   2.1891   2.2429   2.3227   2.3656   2.5007   2.7431   2.8905

          k = 0.3750 0.1250-0.1250 (132608 PWs)   bands (ev):

   -18.4672 -18.3531 -18.3469 -18.3341 -18.3324 -18.3318 -18.3313 -18.3306
   -18.3279 -18.3246 -18.3239 -18.3214 -18.3200 -18.3160 -18.3149 -18.3136
   -18.3133 -18.3108 -18.3104 -18.3064 -18.3053 -18.3018 -18.2775 -18.2688
   -18.2632 -18.2518 -18.2437 -18.2156 -18.2045 -18.1984 -18.1954 -18.1931
   -18.1907 -18.1884 -18.1836 -18.1800 -18.1786 -18.1781 -18.1765 -18.1761
   -18.1640 -18.1556 -18.1492 -18.0982 -18.0879 -18.0848 -18.0736 -18.0730
    -9.4681  -9.3323  -9.2623  -9.2210  -9.1599  -9.1425  -9.0690  -9.0303
    -9.0177  -8.9935  -8.9536  -8.9183  -8.9042  -8.8817  -8.8679  -8.8550
    -8.8023  -8.7543  -8.7095  -8.7032  -8.6489  -8.5330  -8.4924  -8.4223
    -5.2425  -5.2308  -5.2264  -5.1507  -5.1396  -5.1378  -5.1296  -5.1270
    -5.1209  -5.1157  -5.1099  -5.1087  -5.1069  -5.0993  -5.0974  -5.0906
    -5.0872  -5.0858  -5.0854  -5.0801  -5.0678  -4.9737  -4.9612  -4.9547
    -4.2841  -4.0710  -3.8061  -3.7534  -3.5594  -3.5202  -3.2581  -3.0129
    -0.6661  -0.6305  -0.5732  -0.5282  -0.4771  -0.4317  -0.3191  -0.2816
    -0.1517  -0.0729  -0.0193   0.0235   0.3720   0.4710   0.5117   0.5323
     0.5457   0.5750   0.6128   0.6578   0.6782   0.6911   0.7541   0.7856
     0.8033   0.8971   0.9904   1.0183   1.0555   1.1091   1.1289   1.1881
     1.1951   1.2246   1.2554   1.2717   1.3019   1.3300   1.3524   1.3593
     1.4022   1.4168   1.4503   1.4648   1.4939   1.5258   1.5388   1.5663
     1.5851   1.6163   1.6328   1.6429   1.6767   1.6950   1.7192   1.7524
     1.7869   1.8023   1.8304   1.8835   1.9126   1.9816   2.0107   2.0497
     2.1192   2.1673   2.2536   2.3257   2.3903   2.4665   2.7131   2.9099

          k =-0.3750 0.1250 0.1250 (132608 PWs)   bands (ev):

   -18.4672 -18.3531 -18.3469 -18.3341 -18.3324 -18.3318 -18.3313 -18.3306
   -18.3279 -18.3246 -18.3239 -18.3214 -18.3200 -18.3160 -18.3149 -18.3136
   -18.3133 -18.3108 -18.3104 -18.3064 -18.3053 -18.3018 -18.2775 -18.2688
   -18.2632 -18.2518 -18.2437 -18.2156 -18.2045 -18.1984 -18.1954 -18.1931
   -18.1907 -18.1884 -18.1836 -18.1800 -18.1786 -18.1781 -18.1765 -18.1761
   -18.1640 -18.1556 -18.1492 -18.0982 -18.0879 -18.0848 -18.0736 -18.0730
    -9.4681  -9.3326  -9.2629  -9.2193  -9.1607  -9.1386  -9.0750  -9.0272
    -9.0180  -8.9985  -8.9511  -8.9222  -8.8986  -8.8805  -8.8684  -8.8564
    -8.7978  -8.7555  -8.7126  -8.7032  -8.6487  -8.5331  -8.4923  -8.4222
    -5.2426  -5.2308  -5.2264  -5.1508  -5.1394  -5.1378  -5.1295  -5.1269
    -5.1215  -5.1152  -5.1102  -5.1087  -5.1069  -5.0996  -5.0975  -5.0902
    -5.0869  -5.0861  -5.0843  -5.0806  -5.0681  -4.9738  -4.9612  -4.9546
    -4.2843  -4.0698  -3.8099  -3.7531  -3.5671  -3.5049  -3.2651  -3.0105
    -0.6732  -0.6427  -0.5793  -0.5186  -0.4684  -0.4214  -0.3037  -0.2580
    -0.1875  -0.0998  -0.0178   0.0389   0.3712   0.4806   0.5013   0.5325
     0.5552   0.5739   0.6034   0.6377   0.6889   0.7086   0.7500   0.7903
     0.8271   0.8627   0.9949   1.0150   1.0668   1.0880   1.1363   1.1795
     1.2008   1.2219   1.2625   1.2844   1.2986   1.3121   1.3547   1.3719
     1.4102   1.4189   1.4466   1.4701   1.5205   1.5283   1.5491   1.5606
     1.5769   1.6006   1.6237   1.6514   1.6691   1.6916   1.7308   1.7430
     1.7715   1.8021   1.8350   1.8956   1.9132   1.9820   2.0000   2.0434
     2.1047   2.1871   2.2214   2.3272   2.4000   2.4859   2.7064   2.9200

          k =-0.1250 0.3750 0.1250 (132608 PWs)   bands (ev):

   -18.4672 -18.3531 -18.3469 -18.3341 -18.3324 -18.3319 -18.3313 -18.3305
   -18.3279 -18.3246 -18.3239 -18.3214 -18.3200 -18.3160 -18.3149 -18.3136
   -18.3133 -18.3108 -18.3104 -18.3064 -18.3053 -18.3018 -18.2775 -18.2688
   -18.2632 -18.2518 -18.2437 -18.2156 -18.2045 -18.1984 -18.1954 -18.1931
   -18.1907 -18.1884 -18.1836 -18.1800 -18.1786 -18.1781 -18.1765 -18.1761
   -18.1640 -18.1556 -18.1492 -18.0982 -18.0879 -18.0848 -18.0736 -18.0730
    -9.4721  -9.3171  -9.2730  -9.2244  -9.1876  -9.0876  -9.0694  -9.0353
    -9.0126  -8.9932  -8.9688  -8.9498  -8.9021  -8.8846  -8.8624  -8.8398
    -8.8006  -8.7486  -8.7151  -8.6996  -8.6524  -8.5322  -8.4926  -8.4224
    -5.2426  -5.2306  -5.2264  -5.1512  -5.1397  -5.1383  -5.1291  -5.1272
    -5.1205  -5.1154  -5.1115  -5.1089  -5.1072  -5.0992  -5.0973  -5.0896
    -5.0871  -5.0855  -5.0841  -5.0806  -5.0682  -4.9738  -4.9611  -4.9547
    -4.3031  -4.0777  -3.8128  -3.7371  -3.5785  -3.5174  -3.2023  -2.9806
    -0.7008  -0.6452  -0.6249  -0.5723  -0.5268  -0.5010  -0.4664  -0.2427
    -0.1498  -0.0359   0.0392   0.1381   0.3985   0.4197   0.4670   0.5153
     0.5431   0.5765   0.6048   0.6562   0.7069   0.7423   0.7534   0.8216
     0.8911   0.9094   0.9450   1.0150   1.0850   1.1169   1.1251   1.1548
     1.2013   1.2257   1.2628   1.2888   1.3114   1.3501   1.3648   1.3741
     1.4085   1.4362   1.4529   1.4762   1.4968   1.5201   1.5468   1.5665
     1.5827   1.5970   1.6276   1.6440   1.6639   1.6986   1.7272   1.7515
     1.7765   1.7893   1.8510   1.8974   1.9144   1.9742   2.0380   2.0800
     2.0910   2.1908   2.2047   2.3159   2.4301   2.5308   2.7306   2.9003

          k =-0.1250-0.3750-0.1250 (132608 PWs)   bands (ev):

   -18.4672 -18.3531 -18.3469 -18.3341 -18.3324 -18.3319 -18.3313 -18.3305
   -18.3279 -18.3246 -18.3239 -18.3214 -18.3200 -18.3160 -18.3149 -18.3136
   -18.3133 -18.3108 -18.3104 -18.3064 -18.3053 -18.3018 -18.2775 -18.2688
   -18.2632 -18.2518 -18.2437 -18.2157 -18.2045 -18.1984 -18.1954 -18.1931
   -18.1907 -18.1884 -18.1836 -18.1800 -18.1786 -18.1781 -18.1765 -18.1761
   -18.1640 -18.1556 -18.1492 -18.0982 -18.0879 -18.0848 -18.0736 -18.0730
    -9.4713  -9.3192  -9.2771  -9.2219  -9.1805  -9.0879  -9.0760  -9.0337
    -9.0107  -8.9961  -8.9655  -8.9480  -8.9067  -8.8819  -8.8646  -8.8380
    -8.8041  -8.7456  -8.7145  -8.7005  -8.6524  -8.5320  -8.4926  -8.4225
    -5.2426  -5.2306  -5.2264  -5.1515  -5.1400  -5.1382  -5.1289  -5.1275
    -5.1199  -5.1156  -5.1113  -5.1086  -5.1069  -5.0986  -5.0974  -5.0901
    -5.0874  -5.0855  -5.0851  -5.0801  -5.0678  -4.9737  -4.9611  -4.9548
    -4.3015  -4.0769  -3.8188  -3.7433  -3.5696  -3.5163  -3.1989  -2.9840
    -0.7007  -0.6491  -0.6185  -0.5875  -0.5321  -0.4930  -0.4626  -0.2449
    -0.1372  -0.0304   0.0363   0.1426   0.3892   0.4231   0.4810   0.5002
     0.5304   0.5762   0.6096   0.6726   0.6976   0.7185   0.7674   0.8158
     0.8955   0.9177   0.9429   1.0106   1.0636   1.1141   1.1471   1.1768
     1.2112   1.2349   1.2647   1.2708   1.3194   1.3376   1.3568   1.3634
     1.4043   1.4309   1.4447   1.4709   1.5100   1.5262   1.5429   1.5549
     1.5872   1.6036   1.6223   1.6500   1.6772   1.7027   1.7384   1.7547
     1.7707   1.7990   1.8531   1.8747   1.9054   1.9834   2.0508   2.0601
     2.0950   2.1856   2.2189   2.3131   2.3984   2.5349   2.7592   2.9033

          k = 0.1250 0.3750-0.1250 (132608 PWs)   bands (ev):

   -18.4672 -18.3531 -18.3469 -18.3341 -18.3324 -18.3319 -18.3313 -18.3305
   -18.3279 -18.3246 -18.3239 -18.3214 -18.3200 -18.3160 -18.3149 -18.3136
   -18.3133 -18.3108 -18.3104 -18.3064 -18.3053 -18.3018 -18.2775 -18.2688
   -18.2632 -18.2518 -18.2437 -18.2157 -18.2045 -18.1984 -18.1954 -18.1931
   -18.1907 -18.1884 -18.1836 -18.1800 -18.1786 -18.1781 -18.1765 -18.1761
   -18.1640 -18.1556 -18.1492 -18.0982 -18.0879 -18.0848 -18.0736 -18.0730
    -9.4720  -9.3164  -9.2736  -9.2241  -9.1898  -9.0881  -9.0674  -9.0348
    -9.0110  -8.9922  -8.9695  -8.9475  -8.9061  -8.8839  -8.8626  -8.8405
    -8.8042  -8.7478  -8.7116  -8.7004  -8.6522  -8.5323  -8.4927  -8.4225
    -5.2425  -5.2306  -5.2264  -5.1512  -5.1399  -5.1384  -5.1289  -5.1274
    -5.1204  -5.1154  -5.1111  -5.1090  -5.1073  -5.0990  -5.0969  -5.0902
    -5.0873  -5.0855  -5.0848  -5.0801  -5.0678  -4.9737  -4.9611  -4.9548
    -4.3034  -4.0768  -3.8133  -3.7349  -3.5825  -3.5169  -3.2001  -2.9819
    -0.6988  -0.6409  -0.6150  -0.5814  -0.5474  -0.4892  -0.4604  -0.2451
    -0.1510  -0.0322   0.0290   0.1397   0.3856   0.4365   0.4885   0.5109
     0.5336   0.5753   0.5896   0.6773   0.7090   0.7336   0.7541   0.8046
     0.8923   0.9293   0.9392   1.0198   1.0814   1.1106   1.1347   1.1624
     1.1851   1.2306   1.2483   1.2828   1.3098   1.3449   1.3681   1.3851
     1.4122   1.4346   1.4486   1.4716   1.4962   1.5029   1.5523   1.5739
     1.5862   1.6126   1.6286   1.6429   1.6729   1.7027   1.7289   1.7376
     1.7970   1.8010   1.8332   1.8645   1.9094   1.9902   2.0367   2.0755
     2.0993   2.1954   2.2432   2.3061   2.3924   2.5334   2.7461   2.8902

          k = 0.1250-0.3750 0.1250 (132608 PWs)   bands (ev):

   -18.4672 -18.3531 -18.3469 -18.3341 -18.3324 -18.3319 -18.3313 -18.3305
   -18.3279 -18.3246 -18.3239 -18.3214 -18.3200 -18.3160 -18.3149 -18.3136
   -18.3133 -18.3108 -18.3104 -18.3064 -18.3053 -18.3018 -18.2775 -18.2688
   -18.2632 -18.2518 -18.2437 -18.2156 -18.2045 -18.1984 -18.1954 -18.1931
   -18.1907 -18.1884 -18.1836 -18.1800 -18.1786 -18.1781 -18.1765 -18.1761
   -18.1640 -18.1556 -18.1492 -18.0982 -18.0879 -18.0848 -18.0736 -18.0730
    -9.4713  -9.3188  -9.2797  -9.2185  -9.1799  -9.0898  -9.0750  -9.0359
    -9.0137  -8.9934  -8.9642  -8.9488  -8.9052  -8.8831  -8.8613  -8.8412
    -8.8006  -8.7503  -8.7119  -8.7018  -8.6511  -8.5326  -8.4927  -8.4223
    -5.2426  -5.2306  -5.2263  -5.1515  -5.1400  -5.1385  -5.1282  -5.1273
    -5.1209  -5.1148  -5.1122  -5.1083  -5.1068  -5.0994  -5.0972  -5.0899
    -5.0872  -5.0857  -5.0840  -5.0808  -5.0680  -4.9738  -4.9611  -4.9547
    -4.3026  -4.0745  -3.8238  -3.7409  -3.5711  -3.5085  -3.2072  -2.9810
    -0.7017  -0.6547  -0.6158  -0.5827  -0.5368  -0.4849  -0.4459  -0.2447
    -0.1664  -0.0355   0.0399   0.1329   0.3963   0.4380   0.4717   0.5139
     0.5445   0.5678   0.5893   0.6572   0.7162   0.7478   0.7667   0.8122
     0.8743   0.9119   0.9491   1.0228   1.0596   1.1038   1.1499   1.1793
     1.2105   1.2280   1.2478   1.2773   1.3064   1.3218   1.3645   1.3905
     1.4231   1.4271   1.4394   1.4816   1.4957   1.5306   1.5497   1.5704
     1.5757   1.5949   1.6276   1.6560   1.6849   1.7110   1.7299   1.7522
     1.7879   1.7991   1.8294   1.8714   1.9192   1.9687   2.0200   2.0779
     2.1008   2.1770   2.2258   2.3048   2.3778   2.5678   2.7495   2.9102

          k =-0.1250-0.3750 0.3750 (132616 PWs)   bands (ev):

   -18.4672 -18.3531 -18.3469 -18.3341 -18.3324 -18.3319 -18.3313 -18.3305
   -18.3279 -18.3246 -18.3239 -18.3214 -18.3200 -18.3160 -18.3149 -18.3136
   -18.3133 -18.3108 -18.3104 -18.3064 -18.3053 -18.3018 -18.2775 -18.2688
   -18.2632 -18.2518 -18.2437 -18.2157 -18.2045 -18.1984 -18.1954 -18.1931
   -18.1907 -18.1884 -18.1836 -18.1800 -18.1786 -18.1781 -18.1765 -18.1761
   -18.1640 -18.1556 -18.1492 -18.0982 -18.0879 -18.0848 -18.0736 -18.0730
    -9.4653  -9.3074  -9.2893  -9.2213  -9.1880  -9.0965  -9.0705  -9.0487
    -9.0139  -8.9888  -8.9742  -8.9428  -8.9093  -8.8725  -8.8553  -8.8378
    -8.8038  -8.7535  -8.7001  -8.6862  -8.6618  -8.5399  -8.4940  -8.4226
    -5.2424  -5.2307  -5.2263  -5.1509  -5.1407  -5.1384  -5.1291  -5.1274
    -5.1196  -5.1133  -5.1117  -5.1089  -5.1063  -5.0989  -5.0972  -5.0915
    -5.0874  -5.0864  -5.0850  -5.0800  -5.0675  -4.9739  -4.9610  -4.9554
    -4.1915  -3.9672  -3.9505  -3.7466  -3.6222  -3.4025  -3.3676  -3.1587
    -0.6775  -0.6331  -0.5993  -0.5452  -0.3601  -0.2665  -0.1733  -0.0990
    -0.0355   0.0219   0.1220   0.1803   0.3538   0.4273   0.4455   0.4630
     0.5280   0.5585   0.5898   0.6212   0.6682   0.6860   0.7092   0.7733
     0.8208   0.8743   0.8914   0.9333   0.9792   1.0125   1.0502   1.0906
     1.1472   1.1757   1.2128   1.2502   1.2786   1.2974   1.3327   1.3664
     1.3850   1.4223   1.4511   1.4896   1.5165   1.5403   1.5525   1.5864
     1.6142   1.6369   1.6519   1.6881   1.7218   1.7411   1.7541   1.7753
     1.8149   1.8449   1.8497   1.8789   1.9119   1.9735   1.9801   2.0028
     2.0312   2.0762   2.1640   2.2585   2.2668   2.4400   2.5236   2.6163

          k =-0.1250 0.3750-0.3750 (132616 PWs)   bands (ev):

   -18.4672 -18.3531 -18.3469 -18.3341 -18.3324 -18.3319 -18.3313 -18.3305
   -18.3279 -18.3246 -18.3239 -18.3214 -18.3200 -18.3160 -18.3149 -18.3136
   -18.3133 -18.3108 -18.3104 -18.3064 -18.3053 -18.3018 -18.2775 -18.2688
   -18.2632 -18.2518 -18.2437 -18.2157 -18.2045 -18.1984 -18.1954 -18.1931
   -18.1907 -18.1884 -18.1836 -18.1800 -18.1786 -18.1781 -18.1765 -18.1761
   -18.1640 -18.1556 -18.1492 -18.0982 -18.0879 -18.0848 -18.0736 -18.0730
    -9.4644  -9.3140  -9.2879  -9.2224  -9.1712  -9.1058  -9.0750  -9.0501
    -9.0176  -8.9870  -8.9678  -8.9443  -8.9095  -8.8730  -8.8544  -8.8368
    -8.8008  -8.7567  -8.7000  -8.6877  -8.6607  -8.5400  -8.4940  -8.4225
    -5.2425  -5.2307  -5.2262  -5.1512  -5.1405  -5.1388  -5.1284  -5.1272
    -5.1196  -5.1133  -5.1124  -5.1084  -5.1057  -5.0998  -5.0975  -5.0911
    -5.0872  -5.0863  -5.0844  -5.0807  -5.0676  -4.9739  -4.9610  -4.9553
    -4.1887  -3.9645  -3.9571  -3.7633  -3.5981  -3.3979  -3.3769  -3.1601
    -0.6780  -0.6331  -0.6022  -0.5511  -0.3432  -0.2761  -0.1691  -0.0911
    -0.0389   0.0182   0.0989   0.2014   0.3651   0.4235   0.4430   0.4800
     0.5295   0.5410   0.5800   0.6199   0.6479   0.6882   0.7288   0.7840
     0.8043   0.8712   0.9057   0.9301   0.9547   1.0239   1.0432   1.1035
     1.1471   1.1926   1.2240   1.2408   1.2781   1.2905   1.3489   1.3605
     1.3981   1.4037   1.4557   1.4882   1.5027   1.5407   1.5540   1.5817
     1.6110   1.6485   1.6698   1.6817   1.7270   1.7502   1.7579   1.7717
     1.8067   1.8392   1.8624   1.8723   1.9223   1.9540   1.9674   2.0089
     2.0311   2.0720   2.1507   2.2238   2.2798   2.4564   2.5082   2.6552

          k = 0.1250-0.3750-0.3750 (132616 PWs)   bands (ev):

   -18.4672 -18.3531 -18.3469 -18.3341 -18.3324 -18.3319 -18.3313 -18.3305
   -18.3279 -18.3246 -18.3239 -18.3214 -18.3200 -18.3160 -18.3149 -18.3136
   -18.3133 -18.3108 -18.3104 -18.3064 -18.3053 -18.3018 -18.2775 -18.2688
   -18.2632 -18.2518 -18.2437 -18.2157 -18.2045 -18.1984 -18.1954 -18.1931
   -18.1907 -18.1884 -18.1836 -18.1800 -18.1786 -18.1781 -18.1765 -18.1761
   -18.1640 -18.1556 -18.1492 -18.0982 -18.0879 -18.0848 -18.0736 -18.0730
    -9.4653  -9.3094  -9.2871  -9.2223  -9.1849  -9.0954  -9.0753  -9.0495
    -9.0170  -8.9858  -8.9717  -8.9451  -8.9078  -8.8745  -8.8547  -8.8351
    -8.8009  -8.7556  -8.7020  -8.6850  -8.6630  -8.5395  -8.4939  -8.4226
    -5.2425  -5.2306  -5.2263  -5.1510  -5.1403  -5.1385  -5.1293  -5.1271
    -5.1191  -5.1142  -5.1115  -5.1089  -5.1063  -5.0992  -5.0977  -5.0908
    -5.0870  -5.0861  -5.0845  -5.0805  -5.0678  -4.9740  -4.9609  -4.9553
    -4.1898  -3.9889  -3.9316  -3.7421  -3.6196  -3.4331  -3.3403  -3.1609
    -0.6808  -0.6289  -0.6014  -0.5386  -0.3609  -0.3022  -0.1592  -0.1002
    -0.0223   0.0361   0.1463   0.1710   0.3242   0.4165   0.4423   0.4924
     0.5365   0.5484   0.5755   0.6174   0.6715   0.6978   0.7160   0.7698
     0.8022   0.8611   0.9065   0.9240   0.9897   1.0062   1.0479   1.1086
     1.1559   1.1622   1.2225   1.2504   1.2642   1.3074   1.3390   1.3753
     1.3916   1.4190   1.4539   1.4729   1.5117   1.5501   1.5643   1.5788
     1.6028   1.6379   1.6561   1.6843   1.7100   1.7248   1.7504   1.7662
     1.8194   1.8520   1.8736   1.8901   1.9133   1.9593   1.9821   1.9919
     2.0152   2.0987   2.1778   2.2321   2.2972   2.4409   2.4807   2.6427

          k = 0.3750 0.1250-0.3750 (132616 PWs)   bands (ev):

   -18.4672 -18.3531 -18.3469 -18.3341 -18.3324 -18.3318 -18.3313 -18.3306
   -18.3280 -18.3246 -18.3239 -18.3214 -18.3200 -18.3160 -18.3149 -18.3136
   -18.3133 -18.3108 -18.3104 -18.3064 -18.3053 -18.3018 -18.2774 -18.2688
   -18.2632 -18.2518 -18.2437 -18.2156 -18.2045 -18.1984 -18.1954 -18.1931
   -18.1907 -18.1884 -18.1836 -18.1800 -18.1786 -18.1781 -18.1765 -18.1761
   -18.1640 -18.1556 -18.1492 -18.0982 -18.0879 -18.0848 -18.0736 -18.0730
    -9.4638  -9.3131  -9.2767  -9.2321  -9.1622  -9.1368  -9.0826  -9.0455
    -9.0132  -8.9962  -8.9475  -8.9144  -8.9023  -8.8782  -8.8604  -8.8551
    -8.8029  -8.7595  -8.6984  -8.6860  -8.6594  -8.5409  -8.4941  -8.4222
    -5.2425  -5.2309  -5.2264  -5.1505  -5.1402  -5.1379  -5.1300  -5.1265
    -5.1206  -5.1135  -5.1104  -5.1090  -5.1074  -5.0988  -5.0967  -5.0912
    -5.0878  -5.0865  -5.0852  -5.0801  -5.0674  -4.9739  -4.9611  -4.9552
    -4.1746  -3.9881  -3.8815  -3.7735  -3.5891  -3.4692  -3.3991  -3.1831
    -0.6471  -0.5842  -0.4919  -0.3997  -0.3604  -0.2449  -0.1860  -0.1379
    -0.0649   0.0055   0.0574   0.1565   0.3334   0.4268   0.4564   0.5082
     0.5300   0.5656   0.5934   0.6005   0.6339   0.6560   0.7052   0.7540
     0.7976   0.8824   0.9306   0.9686   0.9997   1.0251   1.0639   1.0880
     1.1132   1.1697   1.2202   1.2319   1.2557   1.2780   1.2909   1.3468
     1.3583   1.3981   1.4400   1.4651   1.5076   1.5310   1.5521   1.5761
     1.6098   1.6405   1.6526   1.6800   1.7076   1.7328   1.7674   1.7821
     1.8123   1.8277   1.8511   1.8697   1.8894   1.9706   1.9889   2.0151
     2.0738   2.1028   2.1628   2.1995   2.3054   2.4046   2.4502   2.6620

          k =-0.3750-0.1250-0.3750 (132616 PWs)   bands (ev):

   -18.4672 -18.3531 -18.3469 -18.3341 -18.3324 -18.3318 -18.3313 -18.3306
   -18.3280 -18.3246 -18.3239 -18.3214 -18.3200 -18.3160 -18.3149 -18.3136
   -18.3133 -18.3108 -18.3104 -18.3064 -18.3053 -18.3018 -18.2775 -18.2688
   -18.2632 -18.2518 -18.2437 -18.2156 -18.2045 -18.1984 -18.1954 -18.1931
   -18.1907 -18.1884 -18.1836 -18.1800 -18.1786 -18.1781 -18.1765 -18.1761
   -18.1640 -18.1556 -18.1492 -18.0982 -18.0879 -18.0848 -18.0736 -18.0730
    -9.4627  -9.3215  -9.2751  -9.2157  -9.1802  -9.1198  -9.0929  -9.0456
    -9.0113  -9.0003  -8.9468  -8.9143  -8.9008  -8.8763  -8.8642  -8.8522
    -8.8024  -8.7590  -8.6989  -8.6873  -8.6591  -8.5409  -8.4939  -8.4222
    -5.2426  -5.2309  -5.2263  -5.1510  -5.1403  -5.1378  -5.1297  -5.1266
    -5.1203  -5.1135  -5.1106  -5.1087  -5.1072  -5.0988  -5.0968  -5.0910
    -5.0881  -5.0868  -5.0851  -5.0800  -5.0674  -4.9739  -4.9611  -4.9552
    -4.1654  -4.0013  -3.9023  -3.7037  -3.6638  -3.4276  -3.4018  -3.1919
    -0.6569  -0.5879  -0.4815  -0.4083  -0.3507  -0.2246  -0.2041  -0.1655
    -0.0567   0.0140   0.0631   0.2186   0.3315   0.3879   0.4400   0.4861
     0.5229   0.5523   0.5881   0.6232   0.6444   0.6775   0.6968   0.7534
     0.7974   0.8490   0.9426   0.9702   1.0068   1.0271   1.0773   1.1158
     1.1239   1.1695   1.1938   1.1988   1.2513   1.2837   1.3073   1.3434
     1.3731   1.3887   1.4373   1.4652   1.5135   1.5331   1.5613   1.5926
     1.6110   1.6236   1.6587   1.6862   1.6961   1.7356   1.7585   1.7897
     1.8052   1.8198   1.8466   1.8806   1.9132   1.9453   1.9771   2.0004
     2.0378   2.1089   2.1827   2.2261   2.3125   2.3579   2.5119   2.6463

          k = 0.3750-0.1250 0.3750 (132616 PWs)   bands (ev):

   -18.4672 -18.3531 -18.3469 -18.3341 -18.3324 -18.3318 -18.3313 -18.3306
   -18.3280 -18.3246 -18.3239 -18.3214 -18.3200 -18.3160 -18.3149 -18.3136
   -18.3133 -18.3108 -18.3104 -18.3064 -18.3053 -18.3018 -18.2774 -18.2688
   -18.2632 -18.2518 -18.2437 -18.2156 -18.2045 -18.1984 -18.1954 -18.1931
   -18.1907 -18.1884 -18.1836 -18.1800 -18.1786 -18.1781 -18.1765 -18.1761
   -18.1640 -18.1556 -18.1492 -18.0982 -18.0879 -18.0848 -18.0736 -18.0730
    -9.4627  -9.3215  -9.2765  -9.2134  -9.1780  -9.1226  -9.0929  -9.0490
    -9.0132  -8.9960  -8.9432  -8.9189  -8.9003  -8.8750  -8.8648  -8.8516
    -8.7986  -8.7646  -8.6971  -8.6878  -8.6584  -8.5411  -8.4941  -8.4221
    -5.2426  -5.2309  -5.2262  -5.1509  -5.1401  -5.1382  -5.1290  -5.1264
    -5.1204  -5.1142  -5.1109  -5.1086  -5.1071  -5.0993  -5.0971  -5.0908
    -5.0874  -5.0861  -5.0849  -5.0808  -5.0675  -4.9740  -4.9611  -4.9551
    -4.1667  -4.0018  -3.9030  -3.6948  -3.6639  -3.4347  -3.4039  -3.1894
    -0.6404  -0.5895  -0.5108  -0.3688  -0.3539  -0.2596  -0.1901  -0.1658
    -0.0631  -0.0028   0.0735   0.2194   0.3373   0.3898   0.4383   0.4909
     0.5316   0.5677   0.5923   0.6163   0.6453   0.6742   0.6846   0.7406
     0.8041   0.8507   0.9358   0.9626   1.0069   1.0406   1.0648   1.1138
     1.1331   1.1721   1.2007   1.2265   1.2472   1.2646   1.3050   1.3420
     1.3733   1.3786   1.4431   1.4705   1.5051   1.5310   1.5633   1.5831
     1.6143   1.6347   1.6678   1.6808   1.6978   1.7267   1.7608   1.7715
     1.8195   1.8247   1.8427   1.8652   1.9063   1.9660   1.9856   2.0079
     2.0389   2.1135   2.1769   2.2220   2.3134   2.3477   2.4971   2.6605

          k =-0.3750 0.1250 0.3750 (132616 PWs)   bands (ev):

   -18.4672 -18.3531 -18.3469 -18.3341 -18.3324 -18.3318 -18.3313 -18.3306
   -18.3280 -18.3246 -18.3239 -18.3214 -18.3200 -18.3160 -18.3149 -18.3136
   -18.3133 -18.3108 -18.3104 -18.3064 -18.3053 -18.3018 -18.2775 -18.2688
   -18.2632 -18.2518 -18.2437 -18.2156 -18.2045 -18.1984 -18.1954 -18.1931
   -18.1907 -18.1884 -18.1836 -18.1800 -18.1786 -18.1781 -18.1765 -18.1761
   -18.1640 -18.1556 -18.1492 -18.0982 -18.0879 -18.0848 -18.0736 -18.0730
    -9.4638  -9.3137  -9.2770  -9.2298  -9.1630  -9.1322  -9.0898  -9.0459
    -9.0120  -8.9982  -8.9443  -8.9175  -8.9002  -8.8758  -8.8630  -8.8543
    -8.7982  -8.7620  -8.7006  -8.6852  -8.6599  -8.5408  -8.4939  -8.4221
    -5.2426  -5.2309  -5.2263  -5.1506  -5.1398  -5.1381  -5.1299  -5.1265
    -5.1207  -5.1133  -5.1108  -5.1090  -5.1076  -5.0992  -5.0969  -5.0906
    -5.0875  -5.0864  -5.0845  -5.0806  -5.0677  -4.9740  -4.9611  -4.9551
    -4.1744  -3.9895  -3.8828  -3.7705  -3.5866  -3.4734  -3.3987  -3.1819
    -0.6504  -0.5902  -0.5005  -0.3780  -0.3502  -0.2525  -0.1857  -0.1411
    -0.0788   0.0186   0.0550   0.1589   0.3330   0.4120   0.4738   0.4891
     0.5441   0.5562   0.5853   0.6128   0.6564   0.6681   0.7070   0.7457
     0.7644   0.8789   0.9476   0.9599   1.0014   1.0157   1.0679   1.0953
     1.1256   1.1671   1.1838   1.2351   1.2575   1.2634   1.3236   1.3337
     1.3832   1.4003   1.4303   1.4819   1.5084   1.5408   1.5472   1.5974
     1.6145   1.6382   1.6427   1.6753   1.7026   1.7384   1.7463   1.7671
     1.8054   1.8322   1.8582   1.8735   1.9035   1.9567   1.9845   2.0002
     2.0601   2.1100   2.1701   2.2277   2.2751   2.4120   2.4486   2.6746

          k = 0.3750-0.3750 0.1250 (132616 PWs)   bands (ev):

   -18.4672 -18.3531 -18.3469 -18.3341 -18.3324 -18.3318 -18.3313 -18.3306
   -18.3279 -18.3246 -18.3239 -18.3214 -18.3200 -18.3160 -18.3149 -18.3136
   -18.3133 -18.3108 -18.3104 -18.3064 -18.3053 -18.3018 -18.2775 -18.2688
   -18.2632 -18.2518 -18.2437 -18.2156 -18.2045 -18.1984 -18.1954 -18.1931
   -18.1907 -18.1884 -18.1836 -18.1800 -18.1786 -18.1781 -18.1765 -18.1761
   -18.1640 -18.1556 -18.1492 -18.0982 -18.0879 -18.0848 -18.0736 -18.0730
    -9.4631  -9.3186  -9.2722  -9.2105  -9.1796  -9.1471  -9.0965  -9.0376
    -9.0217  -8.9788  -8.9462  -8.9154  -8.8931  -8.8765  -8.8577  -8.8483
    -8.8097  -8.7537  -8.7098  -8.7043  -8.6517  -8.5337  -8.4939  -8.4236
    -5.2426  -5.2306  -5.2263  -5.1511  -5.1395  -5.1383  -5.1280  -5.1269
    -5.1201  -5.1153  -5.1122  -5.1089  -5.1074  -5.0997  -5.0975  -5.0906
    -5.0868  -5.0861  -5.0843  -5.0802  -5.0679  -4.9737  -4.9614  -4.9544
    -4.1727  -3.9886  -3.9193  -3.7432  -3.6165  -3.4375  -3.3921  -3.1752
    -0.6352  -0.5590  -0.4954  -0.3762  -0.3614  -0.2618  -0.2288  -0.1480
    -0.0976   0.0022   0.0341   0.1991   0.3369   0.3842   0.4477   0.4862
     0.5160   0.5463   0.5702   0.6105   0.6269   0.6789   0.7128   0.7670
     0.8022   0.8398   0.9061   0.9145   0.9713   1.0315   1.0762   1.1284
     1.1517   1.2003   1.2314   1.2443   1.2744   1.2949   1.3174   1.3465
     1.3857   1.4058   1.4548   1.4723   1.5186   1.5408   1.5728   1.5898
     1.6144   1.6383   1.6656   1.6734   1.7009   1.7168   1.7436   1.7736
     1.7881   1.8153   1.8368   1.8599   1.8950   1.9290   1.9823   2.0131
     2.0359   2.1277   2.1585   2.2332   2.2959   2.4738   2.5196   2.7080

          k =-0.3750-0.3750-0.1250 (132616 PWs)   bands (ev):

   -18.4672 -18.3531 -18.3469 -18.3341 -18.3324 -18.3318 -18.3313 -18.3306
   -18.3279 -18.3246 -18.3239 -18.3214 -18.3200 -18.3160 -18.3149 -18.3136
   -18.3133 -18.3108 -18.3104 -18.3064 -18.3053 -18.3018 -18.2775 -18.2688
   -18.2632 -18.2518 -18.2437 -18.2156 -18.2045 -18.1984 -18.1954 -18.1931
   -18.1907 -18.1884 -18.1836 -18.1800 -18.1786 -18.1781 -18.1765 -18.1761
   -18.1640 -18.1556 -18.1492 -18.0982 -18.0879 -18.0848 -18.0736 -18.0730
    -9.4630  -9.3187  -9.2709  -9.2102  -9.1848  -9.1450  -9.0956  -9.0351
    -9.0189  -8.9851  -8.9446  -8.9130  -8.8965  -8.8734  -8.8599  -8.8467
    -8.8145  -8.7485  -8.7112  -8.7044  -8.6525  -8.5333  -8.4937  -8.4238
    -5.2426  -5.2306  -5.2264  -5.1512  -5.1395  -5.1381  -5.1288  -5.1270
    -5.1194  -5.1155  -5.1118  -5.1089  -5.1075  -5.0993  -5.0974  -5.0908
    -5.0873  -5.0864  -5.0847  -5.0797  -5.0677  -4.9736  -4.9613  -4.9546
    -4.1705  -3.9960  -3.9117  -3.7487  -3.6011  -3.4880  -3.3446  -3.1840
    -0.6325  -0.5653  -0.5022  -0.3693  -0.3521  -0.2849  -0.2441  -0.1644
    -0.0532   0.0270   0.0672   0.1823   0.2930   0.4088   0.4238   0.4652
     0.5242   0.5490   0.5810   0.6054   0.6284   0.6767   0.7048   0.7740
     0.8070   0.8565   0.8825   0.9319   0.9566   1.0473   1.0913   1.1162
     1.1658   1.2080   1.2239   1.2359   1.2721   1.2852   1.3072   1.3479
     1.3688   1.4235   1.4322   1.5054   1.5159   1.5469   1.5684   1.5982
     1.6149   1.6258   1.6607   1.6729   1.6932   1.7274   1.7463   1.7500
     1.7888   1.8210   1.8485   1.8718   1.8823   1.9262   1.9879   2.0087
     2.0601   2.1166   2.1457   2.2344   2.3211   2.4382   2.5471   2.6983

          k = 0.3750 0.3750-0.1250 (132616 PWs)   bands (ev):

   -18.4672 -18.3531 -18.3469 -18.3341 -18.3324 -18.3318 -18.3313 -18.3306
   -18.3279 -18.3246 -18.3239 -18.3214 -18.3200 -18.3160 -18.3149 -18.3136
   -18.3133 -18.3108 -18.3104 -18.3064 -18.3053 -18.3018 -18.2775 -18.2688
   -18.2632 -18.2518 -18.2437 -18.2156 -18.2045 -18.1984 -18.1954 -18.1931
   -18.1907 -18.1884 -18.1836 -18.1800 -18.1786 -18.1781 -18.1765 -18.1761
   -18.1640 -18.1556 -18.1492 -18.0982 -18.0879 -18.0848 -18.0736 -18.0730
    -9.4639  -9.3142  -9.2689  -9.2159  -9.1894  -9.1478  -9.0864  -9.0344
    -9.0225  -8.9785  -8.9484  -8.9140  -8.8955  -8.8761  -8.8589  -8.8461
    -8.8152  -8.7509  -8.7096  -8.7027  -8.6527  -8.5333  -8.4939  -8.4239
    -5.2425  -5.2306  -5.2264  -5.1508  -5.1394  -5.1382  -5.1288  -5.1269
    -5.1196  -5.1158  -5.1113  -5.1097  -5.1077  -5.0992  -5.0974  -5.0908
    -5.0873  -5.0860  -5.0848  -5.0797  -5.0677  -4.9736  -4.9614  -4.9545
    -4.1752  -3.9939  -3.9107  -3.7180  -3.6320  -3.4920  -3.3429  -3.1804
    -0.6273  -0.5560  -0.4896  -0.3823  -0.3491  -0.2951  -0.2650  -0.1569
    -0.0624   0.0412   0.0635   0.1657   0.3071   0.4052   0.4455   0.4708
     0.5102   0.5516   0.5811   0.6156   0.6312   0.6678   0.7230   0.7605
     0.7902   0.8526   0.8959   0.9438   0.9667   1.0390   1.0583   1.1263
     1.1588   1.1846   1.2132   1.2299   1.2830   1.3045   1.3288   1.3520
     1.3910   1.4066   1.4409   1.4741   1.5155   1.5501   1.5766   1.5947
     1.6182   1.6297   1.6551   1.6687   1.6901   1.7058   1.7350   1.7752
     1.7929   1.8220   1.8485   1.8586   1.8931   1.9278   1.9905   2.0228
     2.0635   2.1322   2.1694   2.2287   2.3225   2.4091   2.5304   2.6962

          k =-0.3750 0.3750 0.1250 (132616 PWs)   bands (ev):

   -18.4672 -18.3531 -18.3469 -18.3341 -18.3324 -18.3318 -18.3313 -18.3306
   -18.3279 -18.3246 -18.3239 -18.3214 -18.3200 -18.3160 -18.3149 -18.3136
   -18.3133 -18.3108 -18.3104 -18.3064 -18.3053 -18.3018 -18.2775 -18.2688
   -18.2632 -18.2518 -18.2437 -18.2156 -18.2045 -18.1984 -18.1954 -18.1931
   -18.1907 -18.1884 -18.1836 -18.1800 -18.1786 -18.1781 -18.1765 -18.1761
   -18.1640 -18.1556 -18.1492 -18.0982 -18.0879 -18.0848 -18.0736 -18.0730
    -9.4640  -9.3148  -9.2684  -9.2157  -9.1897  -9.1414  -9.0945  -9.0319
    -9.0229  -8.9836  -8.9451  -8.9146  -8.8920  -8.8785  -8.8565  -8.8492
    -8.8096  -8.7516  -8.7126  -8.7028  -8.6525  -8.5334  -8.4937  -8.4237
    -5.2426  -5.2306  -5.2264  -5.1509  -5.1391  -5.1383  -5.1288  -5.1268
    -5.1201  -5.1152  -5.1119  -5.1095  -5.1078  -5.0994  -5.0976  -5.0903
    -5.0870  -5.0860  -5.0842  -5.0800  -5.0680  -4.9738  -4.9613  -4.9545
    -4.1759  -3.9881  -3.9166  -3.7160  -3.6483  -3.4413  -3.3865  -3.1722
    -0.6300  -0.5595  -0.5058  -0.3860  -0.3494  -0.2566  -0.2199  -0.1680
    -0.0973   0.0128   0.0471   0.1858   0.3289   0.3781   0.4412   0.4937
     0.5224   0.5572   0.5775   0.6027   0.6126   0.6868   0.7348   0.7635
     0.8022   0.8265   0.8945   0.9201   0.9897   1.0315   1.0492   1.1433
     1.1663   1.1862   1.2248   1.2442   1.2626   1.2846   1.3233   1.3546
     1.3811   1.4153   1.4563   1.4841   1.5246   1.5503   1.5576   1.5990
     1.6092   1.6446   1.6611   1.6707   1.6903   1.6967   1.7343   1.7589
     1.7741   1.8237   1.8532   1.8758   1.9136   1.9337   1.9820   2.0167
     2.0339   2.1136   2.1605   2.2449   2.3235   2.4636   2.4994   2.6981

          k =-0.3750-0.3750 0.3750 (132612 PWs)   bands (ev):

   -18.4672 -18.3531 -18.3469 -18.3341 -18.3324 -18.3318 -18.3313 -18.3306
   -18.3280 -18.3246 -18.3239 -18.3214 -18.3200 -18.3160 -18.3149 -18.3136
   -18.3133 -18.3108 -18.3104 -18.3064 -18.3053 -18.3018 -18.2775 -18.2688
   -18.2632 -18.2518 -18.2437 -18.2156 -18.2045 -18.1984 -18.1954 -18.1931
   -18.1907 -18.1884 -18.1836 -18.1800 -18.1786 -18.1781 -18.1765 -18.1761
   -18.1640 -18.1556 -18.1492 -18.0982 -18.0879 -18.0848 -18.0736 -18.0730
    -9.4603  -9.2941  -9.2751  -9.2252  -9.1972  -9.1440  -9.1031  -9.0573
    -9.0168  -8.9706  -8.9417  -8.9153  -8.8931  -8.8691  -8.8552  -8.8444
    -8.8149  -8.7566  -8.6993  -8.6872  -8.6640  -8.5400  -8.4948  -8.4239
    -5.2425  -5.2307  -5.2264  -5.1508  -5.1404  -5.1385  -5.1295  -5.1267
    -5.1193  -5.1143  -5.1116  -5.1090  -5.1077  -5.0988  -5.0967  -5.0914
    -5.0877  -5.0866  -5.0845  -5.0794  -5.0671  -4.9737  -4.9610  -4.9550
    -4.0724  -3.8982  -3.8379  -3.7585  -3.6491  -3.5856  -3.4914  -3.3392
    -0.4211  -0.3778  -0.3442  -0.3116  -0.2600  -0.2033  -0.1482  -0.0621
    -0.0286   0.0389   0.1133   0.1948   0.3050   0.3521   0.3758   0.4276
     0.4754   0.5132   0.5590   0.5920   0.6053   0.6740   0.6920   0.7360
     0.8133   0.8586   0.9041   0.9326   0.9701   0.9849   1.0288   1.0624
     1.0832   1.1111   1.1528   1.1715   1.1991   1.2503   1.2644   1.3104
     1.3333   1.3767   1.4381   1.4866   1.5087   1.5411   1.5742   1.6235
     1.6316   1.6583   1.6940   1.7051   1.7210   1.7417   1.7830   1.7983
     1.8116   1.8345   1.8741   1.8846   1.9031   1.9323   1.9791   1.9931
     2.0148   2.0546   2.1034   2.1249   2.1530   2.2175   2.3267   2.4156

          k =-0.3750 0.3750-0.3750 (132612 PWs)   bands (ev):

   -18.4672 -18.3531 -18.3469 -18.3341 -18.3324 -18.3318 -18.3313 -18.3306
   -18.3280 -18.3246 -18.3239 -18.3214 -18.3200 -18.3160 -18.3149 -18.3136
   -18.3133 -18.3108 -18.3104 -18.3064 -18.3053 -18.3018 -18.2775 -18.2688
   -18.2632 -18.2518 -18.2437 -18.2156 -18.2045 -18.1984 -18.1954 -18.1931
   -18.1907 -18.1884 -18.1836 -18.1800 -18.1786 -18.1781 -18.1765 -18.1761
   -18.1640 -18.1556 -18.1492 -18.0982 -18.0879 -18.0848 -18.0736 -18.0730
    -9.4594  -9.3033  -9.2749  -9.2145  -9.1922  -9.1402  -9.1158  -9.0588
    -9.0177  -8.9695  -8.9392  -8.9163  -8.8933  -8.8700  -8.8548  -8.8440
    -8.8097  -8.7605  -8.6991  -8.6889  -8.6627  -8.5402  -8.4948  -8.4237
    -5.2426  -5.2307  -5.2263  -5.1512  -5.1402  -5.1390  -5.1288  -5.1265
    -5.1193  -5.1145  -5.1122  -5.1084  -5.1074  -5.0995  -5.0968  -5.0910
    -5.0872  -5.0867  -5.0842  -5.0799  -5.0673  -4.9737  -4.9610  -4.9549
    -4.0625  -3.9119  -3.8446  -3.7783  -3.6000  -3.5706  -3.5235  -3.3409
    -0.4448  -0.3912  -0.3250  -0.3003  -0.2423  -0.1995  -0.1325  -0.0767
    -0.0274   0.0395   0.0567   0.2433   0.3163   0.3436   0.3887   0.4220
     0.4524   0.5056   0.5568   0.5950   0.6122   0.6612   0.6959   0.7456
     0.7910   0.8722   0.9057   0.9393   0.9617   0.9991   1.0300   1.0517
     1.0944   1.1112   1.1608   1.1689   1.1995   1.2522   1.2646   1.3179
     1.3333   1.3769   1.4287   1.4587   1.5227   1.5471   1.5838   1.6119
     1.6423   1.6645   1.6852   1.7103   1.7261   1.7514   1.7832   1.8022
     1.8111   1.8363   1.8505   1.8866   1.9128   1.9189   1.9628   1.9826
     2.0111   2.0625   2.0754   2.1239   2.1692   2.2123   2.3240   2.4529

          k = 0.3750-0.3750-0.3750 (132612 PWs)   bands (ev):

   -18.4672 -18.3531 -18.3469 -18.3341 -18.3324 -18.3318 -18.3313 -18.3306
   -18.3280 -18.3246 -18.3239 -18.3214 -18.3200 -18.3160 -18.3149 -18.3136
   -18.3133 -18.3108 -18.3104 -18.3064 -18.3053 -18.3018 -18.2775 -18.2688
   -18.2632 -18.2518 -18.2437 -18.2156 -18.2045 -18.1984 -18.1954 -18.1931
   -18.1907 -18.1884 -18.1836 -18.1800 -18.1786 -18.1781 -18.1765 -18.1761
   -18.1640 -18.1556 -18.1492 -18.0982 -18.0879 -18.0848 -18.0736 -18.0730
    -9.4604  -9.2958  -9.2739  -9.2234  -9.1972  -9.1370  -9.1133  -9.0570
    -9.0168  -8.9722  -8.9389  -8.9151  -8.8934  -8.8712  -8.8547  -8.8439
    -8.8096  -8.7589  -8.7014  -8.6863  -8.6646  -8.5399  -8.4946  -8.4238
    -5.2426  -5.2307  -5.2264  -5.1510  -5.1398  -5.1389  -5.1295  -5.1266
    -5.1193  -5.1143  -5.1118  -5.1088  -5.1080  -5.0991  -5.0969  -5.0908
    -5.0874  -5.0864  -5.0841  -5.0797  -5.0675  -4.9738  -4.9610  -4.9549
    -4.0716  -3.9061  -3.8290  -3.7654  -3.6380  -3.5812  -3.5060  -3.3349
    -0.4238  -0.4087  -0.3341  -0.3015  -0.2388  -0.1903  -0.1436  -0.0859
    -0.0415   0.0546   0.0965   0.2264   0.2828   0.3388   0.3763   0.4334
     0.4903   0.5169   0.5519   0.5952   0.6154   0.6584   0.7074   0.7404
     0.7889   0.8593   0.8983   0.9304   0.9485   1.0062   1.0383   1.0655
     1.0906   1.1181   1.1456   1.1587   1.2095   1.2311   1.2760   1.3157
     1.3420   1.3726   1.4293   1.4892   1.5184   1.5429   1.5813   1.6106
     1.6419   1.6683   1.6839   1.7060   1.7154   1.7557   1.7609   1.7801
     1.8177   1.8404   1.8740   1.9015   1.9106   1.9332   1.9614   1.9700
     2.0028   2.0708   2.0855   2.1405   2.1701   2.2026   2.3397   2.4169

     highest occupied level (ev):     3.1370

!    total energy              =   -2256.28884008 Ry
     estimated scf accuracy    <          7.2E-11 Ry

     The total energy is the sum of the following terms:
     one-electron contribution =    -983.55079424 Ry
     hartree contribution      =     619.86316415 Ry
     xc contribution           =    -647.46614208 Ry
     ewald contribution        =   -1245.13506791 Ry

     convergence has been achieved in  15 iterations

     Forces acting on atoms (cartesian axes, Ry/au):

     atom    1 type  1   force =    -0.00640565   -0.00016344   -0.00449100
     atom    2 type  2   force =     0.00911270    0.01038510    0.00330194
     atom    3 type  3   force =    -0.02086072   -0.00118402   -0.00149538
     atom    4 type  3   force =     0.00122268   -0.00748866   -0.00995793
     atom    5 type  3   force =    -0.01134713   -0.01009254    0.00987627
     atom    6 type  1   force =     0.00269173    0.00045145   -0.00420089
     atom    7 type  2   force =     0.00190826    0.00501724   -0.00465454
     atom    8 type  3   force =     0.00097475    0.00656288   -0.01055111
     atom    9 type  3   force =     0.00176099   -0.00419480    0.00922512
     atom   10 type  3   force =     0.00061764   -0.00419620    0.00195610
     atom   11 type  1   force =     0.00035364   -0.00454216   -0.00238914
     atom   12 type  2   force =     0.01883526   -0.01596975   -0.01122975
     atom   13 type  3   force =     0.00509198   -0.00392820   -0.00606059
     atom   14 type  3   force =    -0.00065713    0.00257632    0.00460037
     atom   15 type  3   force =    -0.01172015    0.01839734    0.00361473
     atom   16 type  1   force =     0.00126926   -0.00922593    0.00965945
     atom   17 type  2   force =    -0.00824679   -0.00223306    0.00540059
     atom   18 type  3   force =     0.00682417    0.00300327    0.00386960
     atom   19 type  3   force =     0.00448178    0.00322872   -0.00464989
     atom   20 type  3   force =     0.00346741    0.01220379   -0.00385584
     atom   21 type  1   force =     0.00112311   -0.00326546   -0.00221750
     atom   22 type  2   force =     0.02693436    0.00936409   -0.01908239
     atom   23 type  3   force =     0.00051114   -0.00061015   -0.00130259
     atom   24 type  3   force =    -0.00154720    0.00624514   -0.00493811
     atom   25 type  3   force =     0.00410144   -0.00723685   -0.00335373
     atom   26 type  1   force =    -0.00335544   -0.00088652   -0.00170536
     atom   27 type  2   force =     0.00373566    0.00198149    0.01981690
     atom   28 type  3   force =    -0.00013743    0.00489132   -0.00269123
     atom   29 type  3   force =    -0.00051293   -0.00579886   -0.00222405
     atom   30 type  3   force =     0.00602946   -0.00746282    0.00197258
     atom   31 type  1   force =     0.00999578   -0.00054786   -0.01189190
     atom   32 type  2   force =    -0.01893944    0.01185752    0.00655966
     atom   33 type  3   force =    -0.00760237   -0.00376028    0.00206428
     atom   34 type  3   force =     0.01318093    0.00435138   -0.00054581
     atom   35 type  3   force =    -0.00092232   -0.00032588    0.00017040
     atom   36 type  1   force =    -0.00518489   -0.00033014    0.00243744
     atom   37 type  2   force =    -0.00551454    0.00574260    0.00093210
     atom   38 type  3   force =    -0.00383790   -0.00400597   -0.00195849
     atom   39 type  3   force =    -0.00012346   -0.00420089    0.00855381
     atom   40 type  3   force =    -0.01730863   -0.00460921    0.02143590

     Total force =     0.086457     Total SCF correction =     0.000044


     Computing stress (Cartesian axis) and pressure

          total   stress  (Ry/bohr**3)                   (kbar)     P=       -7.51
  -0.00003835   0.00000076  -0.00000164           -5.64        0.11       -0.24
   0.00000076  -0.00005984  -0.00000337            0.11       -8.80       -0.50
  -0.00000164  -0.00000337  -0.00005493           -0.24       -0.50       -8.08

 
     init_run     :     19.98s CPU     17.03s WALL (       1 calls)
     electrons    :    200.09s CPU    213.13s WALL (       1 calls)
     forces       :      8.74s CPU      3.94s WALL (       1 calls)
     stress       :     31.67s CPU     31.47s WALL (       1 calls)

     Called by init_run:
     wfcinit      :     12.05s CPU     13.96s WALL (       1 calls)
                                       13.96s GPU  (       1 calls)
     potinit      :      4.55s CPU      1.40s WALL (       1 calls)
     hinit0       :      2.82s CPU      1.00s WALL (       1 calls)

     Called by electrons:
     c_bands      :    119.29s CPU    170.80s WALL (      16 calls)
     sum_band     :     21.61s CPU     21.00s WALL (      16 calls)
                                       21.00s GPU  (      16 calls)
     v_of_rho     :     54.86s CPU     16.61s WALL (      16 calls)
     mix_rho      :      6.29s CPU      4.93s WALL (      16 calls)

     Called by c_bands:
     init_us_2    :      2.37s CPU      3.17s WALL (     280 calls)
                                        3.16s GPU  (     280 calls)
     cegterg      :     80.12s CPU    128.75s WALL (     128 calls)

     Called by *egterg:
     cdiaghg      :     14.05s CPU     26.34s WALL (     646 calls)
                                       26.31s GPU  (     646 calls)
     h_psi        :     54.23s CPU     73.93s WALL (     662 calls)
                                       73.49s GPU  (     662 calls)
     g_psi        :      0.00s CPU      0.36s WALL (     526 calls)
                                        0.35s GPU  (     526 calls)

     Called by h_psi:
     h_psi:calbec :      0.32s CPU      9.94s WALL (     662 calls)
                                        9.94s GPU  (     662 calls)
     vloc_psi     :     39.39s CPU     54.00s WALL (     662 calls)
                                       53.08s GPU  (     662 calls)
     add_vuspsi   :      0.33s CPU      9.91s WALL (     662 calls)
                                        9.90s GPU  (     662 calls)

     General routines
     calbec       :      0.32s CPU      0.40s WALL (     702 calls)
     fft          :     25.73s CPU      6.58s WALL (     185 calls)
                                        0.00s GPU  (       6 calls)
     ffts         :      2.59s CPU      0.68s WALL (      16 calls)
     fftw         :      0.64s CPU     62.58s WALL (   10424 calls)
                                       46.83s GPU  (   10424 calls)
 
     Parallel routines
 
     PWSCF        :   4m21.20s CPU   4m26.39s WALL

 
   This run was terminated on:   0: 1:42  23Apr2021            

=------------------------------------------------------------------------------=
   JOB DONE.
=------------------------------------------------------------------------------=
