
     Program PWSCF v.6.7MaX starts on 22Apr2021 at 19:47: 6 

     This program is part of the open-source Quantum ESPRESSO suite
     for quantum simulation of materials; please cite
         "P. Giannozzi et al., J. Phys.:Condens. Matter 21 395502 (2009);
         "P. Giannozzi et al., J. Phys.:Condens. Matter 29 465901 (2017);
         "P. Giannozzi et al., J. Chem. Phys. 152 154105 (2020);
          URL http://www.quantum-espresso.org", 
     in publications or presentations arising from this work. More details at
     http://www.quantum-espresso.org/quote

     Parallel version (MPI & OpenMP), running on      16 processor cores
     Number of MPI processes:                 4
     Threads/MPI process:                     4

     MPI processes distributed on     1 nodes
     K-points division:     npool     =       4
     Reading input from ESP_49.pwi
Warning: card &CELL ignored
Warning: card / ignored

     Current dimensions of program PWSCF are:
     Max number of different atomic species (ntypx) = 10
     Max number of k-points (npk) =  40000
     Max angular momentum in pseudopotentials (lmaxx) =  3
     Message from routine read_pp_mesh:
     mesh size missing, using the one in header
     Message from routine read_pp_mesh:
     mesh size missing, using the one in header
     Message from routine read_pp_mesh:
     mesh size missing, using the one in header

     Subspace diagonalization in iterative solution of the eigenvalue problem:
     a serial algorithm will be used

 
     G-vector sticks info
     --------------------
     sticks:   dense  smooth     PW     G-vecs:    dense   smooth      PW
     Sum       12589   12589   3289              1061107  1061107  140905
 
     Using Slab Decomposition
 


     bravais-lattice index     =            0
     lattice parameter (alat)  =      23.7585  a.u.
     unit-cell volume          =   13410.8736 (a.u.)^3
     number of atoms/cell      =           40
     number of atomic types    =            3
     number of electrons       =       352.00
     number of Kohn-Sham states=          176
     kinetic-energy cutoff     =      70.0000  Ry
     charge density cutoff     =     280.0000  Ry
     scf convergence threshold =      1.0E-10
     mixing beta               =       0.7000
     number of iterations used =            8  plain     mixing
     Exchange-correlation= PBESOL
                           (   1   4  10   8   0   0   0)

     GPU acceleration is ACTIVE.


     celldm(1)=  23.758500  celldm(2)=   0.000000  celldm(3)=   0.000000
     celldm(4)=   0.000000  celldm(5)=   0.000000  celldm(6)=   0.000000

     crystal axes: (cart. coord. in units of alat)
               a(1) = (   1.000000   0.000000   0.000000 )  
               a(2) = (   0.000000   1.000000   0.000000 )  
               a(3) = (   0.000000   0.000000   1.000000 )  

     reciprocal axes: (cart. coord. in units 2 pi/alat)
               b(1) = (  1.000000  0.000000  0.000000 )  
               b(2) = (  0.000000  1.000000  0.000000 )  
               b(3) = (  0.000000  0.000000  1.000000 )  


     PseudoPot. # 1 for Cs read from file:
     /m100/home/userexternal/lmonacel/espresso/pseudo/Cs-nc-pbesol.upf
     MD5 check sum: 9d2f2206a14dc5b3b3f3fbfae186bed4
     Pseudo is Norm-conserving + core correction, Zval =  9.0
     Generated using ONCVPSP code by D. R. Hamann
     Using radial grid of 2384 points,  8 beta functions with: 
                l(1) =   0
                l(2) =   0
                l(3) =   1
                l(4) =   1
                l(5) =   2
                l(6) =   2
                l(7) =   3
                l(8) =   3

     PseudoPot. # 2 for Sn read from file:
     /m100/home/userexternal/lmonacel/espresso/pseudo/Sn-nc-pbesol.upf
     MD5 check sum: c2995d571af40102bfea7461443d92cf
     Pseudo is Norm-conserving + core correction, Zval = 14.0
     Generated using ONCVPSP code by D. R. Hamann
     Using radial grid of 1628 points,  6 beta functions with: 
                l(1) =   0
                l(2) =   0
                l(3) =   1
                l(4) =   1
                l(5) =   2
                l(6) =   2

     PseudoPot. # 3 for I  read from file:
     /m100/home/userexternal/lmonacel/espresso/pseudo/I-nc-pbesol.upf
     MD5 check sum: 80ed5ceb2eb9c553cfb6760a299d9c5b
     Pseudo is Norm-conserving + core correction, Zval =  7.0
     Generated using ONCVPSP code by D. R. Hamann
     Using radial grid of 1182 points,  6 beta functions with: 
                l(1) =   0
                l(2) =   0
                l(3) =   1
                l(4) =   1
                l(5) =   2
                l(6) =   2

     atomic species   valence    mass     pseudopotential
        Cs             9.00   132.90545     Cs( 1.00)
        Sn            14.00   118.71000     Sn( 1.00)
        I              7.00   126.90447     I ( 1.00)

     No symmetry found



   Cartesian axes

     site n.     atom                  positions (alat units)
         1           Cs  tau(   1) = (   0.2649591   0.2904552   0.2748801  )
         2           Sn  tau(   2) = (  -0.0093184   0.0099327   0.0143570  )
         3           I   tau(   3) = (   0.2558430  -0.0208680   0.0037741  )
         4           I   tau(   4) = (   0.0202002   0.0000899   0.2596283  )
         5           I   tau(   5) = (  -0.0003749   0.2550436  -0.0059650  )
         6           Cs  tau(   6) = (   0.2355949   0.2209370   0.7950354  )
         7           Sn  tau(   7) = (  -0.0006719  -0.0119847   0.5029629  )
         8           I   tau(   8) = (   0.2416017   0.0036825   0.5085514  )
         9           I   tau(   9) = (   0.0070369  -0.0068463   0.7405216  )
        10           I   tau(  10) = (  -0.0044401   0.2130139   0.4895199  )
        11           Cs  tau(  11) = (   0.2651652   0.7613389   0.2422816  )
        12           Sn  tau(  12) = (  -0.0127714   0.5060567   0.0072204  )
        13           I   tau(  13) = (   0.2445769   0.5217132  -0.0163058  )
        14           I   tau(  14) = (  -0.0301633   0.4776925   0.2603746  )
        15           I   tau(  15) = (  -0.0186910   0.7614143   0.0461461  )
        16           Cs  tau(  16) = (   0.2334767   0.7443366   0.7345106  )
        17           Sn  tau(  17) = (   0.0124495   0.4770679   0.5051793  )
        18           I   tau(  18) = (   0.2477737   0.4608461   0.4975199  )
        19           I   tau(  19) = (  -0.0234157   0.5067457   0.7489841  )
        20           I   tau(  20) = (   0.0317011   0.7293348   0.4736592  )
        21           Cs  tau(  21) = (   0.7620704   0.2428376   0.2451043  )
        22           Sn  tau(  22) = (   0.5022829   0.0079115   0.0097953  )
        23           I   tau(  23) = (   0.7575437   0.0040758   0.0015450  )
        24           I   tau(  24) = (   0.5164597  -0.0040116   0.2536922  )
        25           I   tau(  25) = (   0.4908887   0.2586732  -0.0190192  )
        26           Cs  tau(  26) = (   0.7253781   0.2450081   0.7225678  )
        27           Sn  tau(  27) = (   0.4948485   0.0188910   0.5048046  )
        28           I   tau(  28) = (   0.7523343  -0.0248863   0.5128496  )
        29           I   tau(  29) = (   0.4958758   0.0182653   0.7431780  )
        30           I   tau(  30) = (   0.5003222   0.2678946   0.4760901  )
        31           Cs  tau(  31) = (   0.7408976   0.7162809   0.2837093  )
        32           Sn  tau(  32) = (   0.4916404   0.5072304  -0.0224477  )
        33           I   tau(  33) = (   0.7570868   0.4916739  -0.0189833  )
        34           I   tau(  34) = (   0.5071119   0.5362340   0.2412477  )
        35           I   tau(  35) = (   0.5199340   0.7616711  -0.0577392  )
        36           Cs  tau(  36) = (   0.7503671   0.7760557   0.7778550  )
        37           Sn  tau(  37) = (   0.5179075   0.5107465   0.4976041  )
        38           I   tau(  38) = (   0.7527464   0.4981428   0.5034378  )
        39           I   tau(  39) = (   0.4895736   0.5050559   0.7425942  )
        40           I   tau(  40) = (   0.5150083   0.7640463   0.5169454  )

     number of k points=    32
                       cart. coord. in units 2pi/alat
        k(    1) = (   0.1250000   0.1250000   0.1250000), wk =   0.0625000
        k(    2) = (   0.1250000   0.1250000   0.3750000), wk =   0.0625000
        k(    3) = (   0.1250000   0.3750000   0.3750000), wk =   0.0625000
        k(    4) = (   0.3750000   0.3750000   0.3750000), wk =   0.0625000
        k(    5) = (  -0.1250000  -0.1250000   0.1250000), wk =   0.0625000
        k(    6) = (  -0.1250000   0.1250000  -0.1250000), wk =   0.0625000
        k(    7) = (   0.1250000  -0.1250000  -0.1250000), wk =   0.0625000
        k(    8) = (  -0.1250000  -0.1250000   0.3750000), wk =   0.0625000
        k(    9) = (  -0.1250000   0.1250000  -0.3750000), wk =   0.0625000
        k(   10) = (   0.1250000  -0.1250000  -0.3750000), wk =   0.0625000
        k(   11) = (   0.3750000  -0.1250000   0.1250000), wk =   0.0625000
        k(   12) = (  -0.3750000  -0.1250000  -0.1250000), wk =   0.0625000
        k(   13) = (   0.3750000   0.1250000  -0.1250000), wk =   0.0625000
        k(   14) = (  -0.3750000   0.1250000   0.1250000), wk =   0.0625000
        k(   15) = (  -0.1250000   0.3750000   0.1250000), wk =   0.0625000
        k(   16) = (  -0.1250000  -0.3750000  -0.1250000), wk =   0.0625000
        k(   17) = (   0.1250000   0.3750000  -0.1250000), wk =   0.0625000
        k(   18) = (   0.1250000  -0.3750000   0.1250000), wk =   0.0625000
        k(   19) = (  -0.1250000  -0.3750000   0.3750000), wk =   0.0625000
        k(   20) = (  -0.1250000   0.3750000  -0.3750000), wk =   0.0625000
        k(   21) = (   0.1250000  -0.3750000  -0.3750000), wk =   0.0625000
        k(   22) = (   0.3750000   0.1250000  -0.3750000), wk =   0.0625000
        k(   23) = (  -0.3750000  -0.1250000  -0.3750000), wk =   0.0625000
        k(   24) = (   0.3750000  -0.1250000   0.3750000), wk =   0.0625000
        k(   25) = (  -0.3750000   0.1250000   0.3750000), wk =   0.0625000
        k(   26) = (   0.3750000  -0.3750000   0.1250000), wk =   0.0625000
        k(   27) = (  -0.3750000  -0.3750000  -0.1250000), wk =   0.0625000
        k(   28) = (   0.3750000   0.3750000  -0.1250000), wk =   0.0625000
        k(   29) = (  -0.3750000   0.3750000   0.1250000), wk =   0.0625000
        k(   30) = (  -0.3750000  -0.3750000   0.3750000), wk =   0.0625000
        k(   31) = (  -0.3750000   0.3750000  -0.3750000), wk =   0.0625000
        k(   32) = (   0.3750000  -0.3750000  -0.3750000), wk =   0.0625000

     Dense  grid:  1061107 G-vectors     FFT dimensions: ( 128, 128, 128)

     Estimated max dynamical RAM per process >       6.82 GB

     Estimated total dynamical RAM >      27.27 GB

     Initial potential from superposition of free atoms

     starting charge  351.69472, renormalised to  352.00000
     Starting wfcs are  208 randomized atomic wfcs

     total cpu time spent up to now is       17.9 secs

     Self-consistent Calculation

     iteration #  1     ecut=    70.00 Ry     beta= 0.70
     Davidson diagonalization with overlap
     ethr =  1.00E-02,  avg # of iterations =  2.0

     Threshold (ethr) on eigenvalues was too large:
     Diagonalizing with lowered threshold

     Davidson diagonalization with overlap
     ethr =  2.13E-04,  avg # of iterations =  4.0

     total cpu time spent up to now is       38.9 secs

     total energy              =   -2256.03893210 Ry
     estimated scf accuracy    <       0.64835156 Ry

     iteration #  2     ecut=    70.00 Ry     beta= 0.70
     Davidson diagonalization with overlap
     ethr =  1.84E-04,  avg # of iterations =  3.5

     total cpu time spent up to now is       51.8 secs

     total energy              =   -2256.23228787 Ry
     estimated scf accuracy    <       0.30639307 Ry

     iteration #  3     ecut=    70.00 Ry     beta= 0.70
     Davidson diagonalization with overlap
     ethr =  8.70E-05,  avg # of iterations =  3.1

     total cpu time spent up to now is       63.7 secs

     total energy              =   -2256.29174632 Ry
     estimated scf accuracy    <       0.03643215 Ry

     iteration #  4     ecut=    70.00 Ry     beta= 0.70
     Davidson diagonalization with overlap
     ethr =  1.04E-05,  avg # of iterations =  4.1

     total cpu time spent up to now is       76.3 secs

     total energy              =   -2256.30256604 Ry
     estimated scf accuracy    <       0.00387603 Ry

     iteration #  5     ecut=    70.00 Ry     beta= 0.70
     Davidson diagonalization with overlap
     ethr =  1.10E-06,  avg # of iterations =  4.0

     total cpu time spent up to now is       89.0 secs

     total energy              =   -2256.30327953 Ry
     estimated scf accuracy    <       0.00117332 Ry

     iteration #  6     ecut=    70.00 Ry     beta= 0.70
     Davidson diagonalization with overlap
     ethr =  3.33E-07,  avg # of iterations =  3.3

     total cpu time spent up to now is      101.5 secs

     total energy              =   -2256.30349679 Ry
     estimated scf accuracy    <       0.00014464 Ry

     iteration #  7     ecut=    70.00 Ry     beta= 0.70
     Davidson diagonalization with overlap
     ethr =  4.11E-08,  avg # of iterations =  4.6

     total cpu time spent up to now is      115.5 secs

     total energy              =   -2256.30354600 Ry
     estimated scf accuracy    <       0.00002646 Ry

     iteration #  8     ecut=    70.00 Ry     beta= 0.70
     Davidson diagonalization with overlap
     ethr =  7.52E-09,  avg # of iterations =  4.0

     total cpu time spent up to now is      128.7 secs

     total energy              =   -2256.30355349 Ry
     estimated scf accuracy    <       0.00000616 Ry

     iteration #  9     ecut=    70.00 Ry     beta= 0.70
     Davidson diagonalization with overlap
     ethr =  1.75E-09,  avg # of iterations =  4.0

     total cpu time spent up to now is      142.3 secs

     total energy              =   -2256.30355569 Ry
     estimated scf accuracy    <       0.00000073 Ry

     iteration # 10     ecut=    70.00 Ry     beta= 0.70
     Davidson diagonalization with overlap
     ethr =  2.08E-10,  avg # of iterations =  5.0

     total cpu time spent up to now is      156.8 secs

     total energy              =   -2256.30355592 Ry
     estimated scf accuracy    <       0.00000025 Ry

     iteration # 11     ecut=    70.00 Ry     beta= 0.70
     Davidson diagonalization with overlap
     ethr =  7.19E-11,  avg # of iterations =  3.3

     total cpu time spent up to now is      170.4 secs

     total energy              =   -2256.30355600 Ry
     estimated scf accuracy    <       0.00000003 Ry

     iteration # 12     ecut=    70.00 Ry     beta= 0.70
     Davidson diagonalization with overlap
     ethr =  8.19E-12,  avg # of iterations =  6.5

     total cpu time spent up to now is      188.6 secs

     total energy              =   -2256.30355603 Ry
     estimated scf accuracy    <       0.00000002 Ry

     iteration # 13     ecut=    70.00 Ry     beta= 0.70
     Davidson diagonalization with overlap
     ethr =  4.71E-12,  avg # of iterations =  3.3

     total cpu time spent up to now is      201.4 secs

     total energy              =   -2256.30355603 Ry
     estimated scf accuracy    <          2.6E-09 Ry

     iteration # 14     ecut=    70.00 Ry     beta= 0.70
     Davidson diagonalization with overlap
     ethr =  7.38E-13,  avg # of iterations =  4.3

     total cpu time spent up to now is      215.5 secs

     total energy              =   -2256.30355603 Ry
     estimated scf accuracy    <          2.1E-10 Ry

     iteration # 15     ecut=    70.00 Ry     beta= 0.70
     Davidson diagonalization with overlap
     ethr =  1.00E-13,  avg # of iterations =  4.9

     total cpu time spent up to now is      231.8 secs

     End of self-consistent calculation

          k = 0.1250 0.1250 0.1250 (132670 PWs)   bands (ev):

   -18.5043 -18.4953 -18.4355 -18.3699 -18.3641 -18.3551 -18.3506 -18.3469
   -18.3462 -18.3418 -18.3383 -18.3210 -18.3158 -18.3142 -18.3072 -18.3064
   -18.3027 -18.3021 -18.2977 -18.2956 -18.2892 -18.2701 -18.2617 -18.2582
   -18.2520 -18.2454 -18.2332 -18.2315 -18.2247 -18.2244 -18.2174 -18.2166
   -18.2124 -18.2116 -18.2110 -18.2082 -18.2081 -18.2024 -18.1994 -18.1983
   -18.1964 -18.1950 -18.1762 -17.9690 -17.9613 -17.9382 -17.9349 -17.9324
    -9.4305  -9.3199  -9.2688  -9.2116  -9.1735  -9.1051  -9.0844  -9.0318
    -8.9969  -8.9631  -8.9208  -8.8961  -8.8753  -8.8578  -8.8190  -8.8118
    -8.7967  -8.7676  -8.7029  -8.6864  -8.6690  -8.6247  -8.5686  -8.5144
    -5.2743  -5.2710  -5.2622  -5.2580  -5.2515  -5.2471  -5.2319  -5.2139
    -5.2052  -5.1474  -5.1365  -5.1295  -5.1230  -5.1219  -5.1212  -5.1175
    -5.1127  -5.1089  -5.0128  -4.9920  -4.9845  -4.9775  -4.9673  -4.9500
    -4.4744  -3.9925  -3.9199  -3.8829  -3.4126  -3.3542  -3.3282  -2.7338
    -0.7520  -0.6832  -0.6767  -0.6050  -0.5845  -0.5575  -0.5114  -0.4632
    -0.4237  -0.3800  -0.3381  -0.3137   0.4635   0.4835   0.4978   0.6112
     0.6469   0.6858   0.7574   0.7732   0.8174   0.9020   0.9415   0.9862
     1.0005   1.0263   1.0698   1.1115   1.1333   1.1631   1.1751   1.2057
     1.2267   1.2624   1.2659   1.2956   1.3113   1.3356   1.3660   1.3832
     1.4145   1.4311   1.4491   1.4685   1.4888   1.4939   1.5215   1.5529
     1.5700   1.6067   1.6301   1.6522   1.6630   1.6853   1.7033   1.7317
     1.7654   1.8134   1.8665   1.9844   2.0102   2.0347   2.0575   2.1215
     2.1378   2.1834   2.2530   2.2672   2.6410   2.6977   2.7890   3.1949

          k = 0.1250 0.1250 0.3750 (132608 PWs)   bands (ev):

   -18.5043 -18.4953 -18.4355 -18.3699 -18.3641 -18.3551 -18.3506 -18.3469
   -18.3462 -18.3418 -18.3383 -18.3210 -18.3158 -18.3142 -18.3072 -18.3064
   -18.3027 -18.3021 -18.2977 -18.2956 -18.2892 -18.2701 -18.2617 -18.2582
   -18.2520 -18.2454 -18.2332 -18.2315 -18.2246 -18.2244 -18.2174 -18.2166
   -18.2124 -18.2116 -18.2110 -18.2082 -18.2081 -18.2024 -18.1994 -18.1983
   -18.1964 -18.1950 -18.1762 -17.9690 -17.9613 -17.9382 -17.9349 -17.9324
    -9.4120  -9.3347  -9.2647  -9.2157  -9.1694  -9.1222  -9.0826  -9.0560
    -8.9964  -8.9601  -8.9259  -8.8994  -8.8740  -8.8479  -8.8066  -8.7993
    -8.7814  -8.7547  -8.7070  -8.6956  -8.6742  -8.6182  -8.5802  -8.5188
    -5.2739  -5.2697  -5.2630  -5.2578  -5.2516  -5.2472  -5.2321  -5.2140
    -5.2052  -5.1471  -5.1346  -5.1306  -5.1241  -5.1214  -5.1208  -5.1186
    -5.1122  -5.1091  -5.0128  -4.9918  -4.9843  -4.9778  -4.9676  -4.9501
    -4.3425  -4.1284  -3.8097  -3.7706  -3.5823  -3.5446  -3.2082  -2.9681
    -0.7353  -0.6672  -0.6290  -0.5519  -0.5148  -0.4769  -0.4374  -0.4129
    -0.1303  -0.0913  -0.0459   0.0210   0.4354   0.4847   0.5166   0.5301
     0.5479   0.6000   0.6282   0.6587   0.7024   0.7386   0.7757   0.8104
     0.8698   0.8821   1.0148   1.0674   1.0900   1.1255   1.1410   1.2077
     1.2127   1.2349   1.2804   1.3100   1.3328   1.3415   1.3644   1.3869
     1.4094   1.4304   1.4406   1.4689   1.4869   1.5117   1.5393   1.5714
     1.5908   1.6254   1.6536   1.6761   1.7075   1.7305   1.7530   1.7682
     1.7884   1.8182   1.8553   1.8938   1.9304   1.9587   2.0053   2.0734
     2.0953   2.1371   2.2103   2.2462   2.3828   2.4676   2.7460   2.9281

          k = 0.1250 0.3750 0.3750 (132616 PWs)   bands (ev):

   -18.5043 -18.4953 -18.4355 -18.3699 -18.3641 -18.3551 -18.3505 -18.3469
   -18.3462 -18.3418 -18.3383 -18.3210 -18.3158 -18.3142 -18.3072 -18.3064
   -18.3027 -18.3021 -18.2977 -18.2956 -18.2892 -18.2701 -18.2617 -18.2582
   -18.2520 -18.2454 -18.2332 -18.2315 -18.2247 -18.2244 -18.2174 -18.2166
   -18.2124 -18.2116 -18.2110 -18.2082 -18.2081 -18.2024 -18.1994 -18.1983
   -18.1964 -18.1950 -18.1762 -17.9690 -17.9613 -17.9382 -17.9349 -17.9324
    -9.3997  -9.3233  -9.2706  -9.2304  -9.1791  -9.1258  -9.0911  -9.0655
    -9.0040  -8.9453  -8.9272  -8.8989  -8.8754  -8.8270  -8.8034  -8.7931
    -8.7754  -8.7522  -8.7083  -8.6954  -8.6764  -8.6214  -8.5825  -8.5254
    -5.2739  -5.2696  -5.2630  -5.2577  -5.2516  -5.2469  -5.2322  -5.2140
    -5.2052  -5.1472  -5.1350  -5.1303  -5.1241  -5.1225  -5.1207  -5.1181
    -5.1114  -5.1095  -5.0128  -4.9918  -4.9844  -4.9779  -4.9677  -4.9501
    -4.2231  -4.0545  -3.9194  -3.7534  -3.6499  -3.4699  -3.3501  -3.1571
    -0.7078  -0.6223  -0.5464  -0.5199  -0.3577  -0.2477  -0.2131  -0.1044
    -0.0655   0.0026   0.0527   0.1076   0.3124   0.4426   0.4814   0.5053
     0.5418   0.5594   0.5789   0.6051   0.6464   0.6873   0.7171   0.7406
     0.7964   0.8772   0.9274   0.9627   0.9906   1.0135   1.0594   1.1177
     1.1342   1.1994   1.2228   1.2552   1.2862   1.3091   1.3415   1.3849
     1.3946   1.4420   1.4508   1.4830   1.5124   1.5438   1.5793   1.5984
     1.6356   1.6505   1.6721   1.7075   1.7306   1.7499   1.7814   1.7983
     1.8238   1.8308   1.8642   1.9054   1.9227   1.9468   1.9614   1.9971
     2.0381   2.0687   2.1163   2.1638   2.2448   2.3898   2.4848   2.6848

          k = 0.3750 0.3750 0.3750 (132612 PWs)   bands (ev):

   -18.5043 -18.4953 -18.4355 -18.3699 -18.3641 -18.3551 -18.3505 -18.3469
   -18.3462 -18.3418 -18.3383 -18.3210 -18.3158 -18.3142 -18.3072 -18.3064
   -18.3027 -18.3021 -18.2977 -18.2956 -18.2892 -18.2701 -18.2617 -18.2582
   -18.2520 -18.2454 -18.2332 -18.2315 -18.2247 -18.2244 -18.2174 -18.2166
   -18.2124 -18.2116 -18.2110 -18.2082 -18.2081 -18.2024 -18.1994 -18.1983
   -18.1964 -18.1950 -18.1762 -17.9690 -17.9613 -17.9382 -17.9349 -17.9324
    -9.3846  -9.3123  -9.2756  -9.2355  -9.1863  -9.1438  -9.1198  -9.0756
    -8.9758  -8.9550  -8.9146  -8.8944  -8.8591  -8.8326  -8.8067  -8.7912
    -8.7693  -8.7413  -8.7089  -8.6939  -8.6743  -8.6236  -8.5952  -8.5272
    -5.2741  -5.2693  -5.2632  -5.2576  -5.2517  -5.2470  -5.2322  -5.2141
    -5.2051  -5.1473  -5.1349  -5.1303  -5.1242  -5.1224  -5.1204  -5.1180
    -5.1113  -5.1096  -5.0129  -4.9919  -4.9843  -4.9777  -4.9675  -4.9501
    -4.1069  -3.9529  -3.8438  -3.7660  -3.6794  -3.5976  -3.5135  -3.3524
    -0.4285  -0.3705  -0.3284  -0.2787  -0.2280  -0.2104  -0.1222  -0.0844
    -0.0350   0.0076   0.0561   0.2187   0.2777   0.3203   0.4030   0.4583
     0.4834   0.5173   0.5312   0.5496   0.5874   0.6124   0.6588   0.6972
     0.8460   0.8653   0.9375   0.9561   1.0055   1.0164   1.0387   1.0619
     1.0919   1.1204   1.1517   1.1765   1.2044   1.2297   1.2493   1.3205
     1.3700   1.3910   1.4489   1.4898   1.5352   1.5798   1.5929   1.6516
     1.6838   1.7019   1.7165   1.7302   1.7550   1.7690   1.7818   1.7965
     1.8244   1.8327   1.8602   1.8751   1.9050   1.9186   1.9456   1.9558
     1.9834   2.0226   2.0529   2.0816   2.1243   2.1590   2.2610   2.4157

          k =-0.1250-0.1250 0.1250 (132670 PWs)   bands (ev):

   -18.5043 -18.4953 -18.4355 -18.3699 -18.3641 -18.3551 -18.3506 -18.3469
   -18.3462 -18.3418 -18.3383 -18.3210 -18.3158 -18.3142 -18.3072 -18.3064
   -18.3027 -18.3021 -18.2977 -18.2956 -18.2892 -18.2701 -18.2617 -18.2582
   -18.2520 -18.2454 -18.2332 -18.2315 -18.2247 -18.2244 -18.2174 -18.2166
   -18.2124 -18.2116 -18.2110 -18.2082 -18.2081 -18.2024 -18.1994 -18.1983
   -18.1964 -18.1950 -18.1762 -17.9690 -17.9613 -17.9382 -17.9349 -17.9324
    -9.4313  -9.3131  -9.2767  -9.2130  -9.1689  -9.1063  -9.0863  -9.0309
    -8.9929  -8.9648  -8.9225  -8.8984  -8.8753  -8.8518  -8.8211  -8.8111
    -8.8025  -8.7619  -8.7076  -8.6848  -8.6677  -8.6251  -8.5682  -8.5146
    -5.2743  -5.2710  -5.2622  -5.2580  -5.2513  -5.2472  -5.2320  -5.2137
    -5.2052  -5.1473  -5.1365  -5.1295  -5.1230  -5.1219  -5.1213  -5.1177
    -5.1125  -5.1089  -5.0129  -4.9919  -4.9846  -4.9775  -4.9673  -4.9500
    -4.4747  -3.9822  -3.9134  -3.9028  -3.3848  -3.3688  -3.3387  -2.7330
    -0.7483  -0.6967  -0.6647  -0.6140  -0.5842  -0.5405  -0.5096  -0.4742
    -0.4184  -0.3737  -0.3419  -0.3263   0.4646   0.4776   0.5015   0.6283
     0.6358   0.6820   0.7583   0.7721   0.8164   0.9223   0.9304   0.9438
     0.9975   1.0548   1.0739   1.1210   1.1388   1.1663   1.1978   1.2159
     1.2370   1.2649   1.2802   1.2910   1.3048   1.3195   1.3472   1.3703
     1.3895   1.4268   1.4512   1.4746   1.5032   1.5173   1.5294   1.5431
     1.5680   1.5956   1.6181   1.6331   1.6631   1.6851   1.6961   1.7286
     1.7628   1.8159   1.8838   1.9808   2.0049   2.0563   2.0614   2.1149
     2.1523   2.1619   2.2467   2.2749   2.6365   2.6941   2.8077   3.1989

          k =-0.1250 0.1250-0.1250 (132670 PWs)   bands (ev):

   -18.5043 -18.4953 -18.4355 -18.3699 -18.3641 -18.3551 -18.3506 -18.3469
   -18.3462 -18.3418 -18.3383 -18.3210 -18.3158 -18.3142 -18.3072 -18.3064
   -18.3027 -18.3021 -18.2977 -18.2956 -18.2892 -18.2701 -18.2617 -18.2582
   -18.2520 -18.2454 -18.2332 -18.2315 -18.2247 -18.2244 -18.2174 -18.2166
   -18.2124 -18.2116 -18.2110 -18.2082 -18.2081 -18.2024 -18.1994 -18.1983
   -18.1964 -18.1950 -18.1762 -17.9690 -17.9613 -17.9382 -17.9349 -17.9324
    -9.4311  -9.3146  -9.2756  -9.2099  -9.1728  -9.1012  -9.0918  -9.0272
    -8.9957  -8.9628  -8.9223  -8.9050  -8.8746  -8.8486  -8.8185  -8.8089
    -8.8008  -8.7692  -8.7037  -8.6859  -8.6693  -8.6244  -8.5682  -8.5146
    -5.2743  -5.2708  -5.2622  -5.2581  -5.2514  -5.2471  -5.2320  -5.2138
    -5.2051  -5.1472  -5.1365  -5.1296  -5.1230  -5.1220  -5.1212  -5.1177
    -5.1125  -5.1089  -5.0128  -4.9919  -4.9845  -4.9776  -4.9672  -4.9500
    -4.4745  -3.9861  -3.9293  -3.8806  -3.4048  -3.3533  -3.3364  -2.7334
    -0.7606  -0.7029  -0.6531  -0.5996  -0.5747  -0.5427  -0.5172  -0.4743
    -0.4162  -0.3978  -0.3388  -0.3129   0.4627   0.4804   0.5027   0.6147
     0.6317   0.6986   0.7599   0.7747   0.8191   0.9046   0.9301   0.9646
     1.0001   1.0360   1.0820   1.1039   1.1455   1.1621   1.1770   1.2047
     1.2413   1.2541   1.2690   1.2973   1.3288   1.3369   1.3569   1.3931
     1.4000   1.4201   1.4453   1.4616   1.4994   1.5090   1.5295   1.5508
     1.5624   1.6211   1.6247   1.6348   1.6585   1.6728   1.7058   1.7154
     1.7508   1.8231   1.8815   1.9837   2.0066   2.0363   2.0616   2.1203
     2.1544   2.1710   2.2451   2.2824   2.6229   2.6967   2.8126   3.1877

          k = 0.1250-0.1250-0.1250 (132670 PWs)   bands (ev):

   -18.5043 -18.4953 -18.4355 -18.3699 -18.3641 -18.3551 -18.3506 -18.3469
   -18.3462 -18.3418 -18.3383 -18.3210 -18.3158 -18.3142 -18.3072 -18.3064
   -18.3027 -18.3021 -18.2977 -18.2956 -18.2892 -18.2701 -18.2617 -18.2582
   -18.2520 -18.2454 -18.2332 -18.2315 -18.2247 -18.2244 -18.2174 -18.2166
   -18.2124 -18.2116 -18.2110 -18.2082 -18.2081 -18.2024 -18.1994 -18.1983
   -18.1964 -18.1950 -18.1762 -17.9690 -17.9613 -17.9382 -17.9349 -17.9324
    -9.4309  -9.3158  -9.2751  -9.2092  -9.1745  -9.0977  -9.0909  -9.0307
    -8.9963  -8.9644  -8.9232  -8.8959  -8.8775  -8.8489  -8.8196  -8.8186
    -8.7972  -8.7627  -8.7057  -8.6860  -8.6687  -8.6246  -8.5685  -8.5144
    -5.2743  -5.2709  -5.2622  -5.2581  -5.2513  -5.2472  -5.2319  -5.2137
    -5.2053  -5.1473  -5.1365  -5.1295  -5.1230  -5.1219  -5.1212  -5.1175
    -5.1126  -5.1090  -5.0128  -4.9920  -4.9847  -4.9776  -4.9672  -4.9500
    -4.4745  -3.9870  -3.9155  -3.8950  -3.3943  -3.3683  -3.3299  -2.7340
    -0.7619  -0.7059  -0.6439  -0.6054  -0.5749  -0.5493  -0.5013  -0.4692
    -0.4329  -0.3790  -0.3510  -0.3178   0.4669   0.4800   0.5006   0.6062
     0.6449   0.6972   0.7496   0.7754   0.8161   0.9039   0.9287   0.9781
     1.0118   1.0315   1.0710   1.1268   1.1327   1.1748   1.1774   1.2139
     1.2320   1.2407   1.2702   1.2910   1.3078   1.3360   1.3684   1.3772
     1.4046   1.4276   1.4445   1.4689   1.4946   1.5086   1.5400   1.5515
     1.5641   1.5914   1.6194   1.6480   1.6686   1.6846   1.6948   1.7383
     1.7628   1.8113   1.8695   1.9831   1.9916   2.0356   2.0783   2.1118
     2.1495   2.1728   2.2497   2.2790   2.6415   2.6888   2.8167   3.1787

          k =-0.1250-0.1250 0.3750 (132608 PWs)   bands (ev):

   -18.5043 -18.4953 -18.4355 -18.3699 -18.3641 -18.3551 -18.3506 -18.3469
   -18.3462 -18.3418 -18.3383 -18.3210 -18.3158 -18.3142 -18.3072 -18.3064
   -18.3027 -18.3021 -18.2977 -18.2956 -18.2892 -18.2701 -18.2617 -18.2582
   -18.2520 -18.2454 -18.2332 -18.2315 -18.2246 -18.2244 -18.2174 -18.2166
   -18.2124 -18.2116 -18.2110 -18.2082 -18.2081 -18.2024 -18.1994 -18.1983
   -18.1964 -18.1950 -18.1762 -17.9690 -17.9613 -17.9382 -17.9349 -17.9324
    -9.4135  -9.3279  -9.2740  -9.2130  -9.1678  -9.1196  -9.0898  -9.0522
    -8.9940  -8.9607  -8.9274  -8.9010  -8.8734  -8.8448  -8.8049  -8.8024
    -8.7857  -8.7483  -8.7112  -8.6962  -8.6719  -8.6187  -8.5796  -8.5190
    -5.2740  -5.2697  -5.2630  -5.2578  -5.2515  -5.2473  -5.2322  -5.2138
    -5.2052  -5.1471  -5.1345  -5.1308  -5.1241  -5.1217  -5.1205  -5.1190
    -5.1120  -5.1091  -5.0129  -4.9918  -4.9844  -4.9778  -4.9676  -4.9501
    -4.3440  -4.1227  -3.8142  -3.7789  -3.5681  -3.5465  -3.2144  -2.9656
    -0.7344  -0.6710  -0.6357  -0.5368  -0.5133  -0.4753  -0.4317  -0.4160
    -0.1478  -0.0955  -0.0464   0.0223   0.4402   0.4740   0.5178   0.5509
     0.5584   0.5892   0.6248   0.6684   0.7091   0.7315   0.7582   0.7936
     0.8730   0.9035   1.0190   1.0674   1.1024   1.1242   1.1449   1.2058
     1.2152   1.2514   1.2663   1.3091   1.3246   1.3354   1.3561   1.3753
     1.4102   1.4232   1.4510   1.4851   1.4985   1.5279   1.5500   1.5605
     1.5896   1.6041   1.6563   1.6663   1.6886   1.7055   1.7455   1.7507
     1.8022   1.8284   1.8736   1.9132   1.9239   1.9611   2.0077   2.0727
     2.1037   2.1408   2.1840   2.2506   2.4043   2.4531   2.7516   2.9334

          k =-0.1250 0.1250-0.3750 (132608 PWs)   bands (ev):

   -18.5043 -18.4953 -18.4355 -18.3699 -18.3641 -18.3551 -18.3506 -18.3469
   -18.3462 -18.3418 -18.3383 -18.3210 -18.3158 -18.3142 -18.3072 -18.3064
   -18.3027 -18.3021 -18.2977 -18.2956 -18.2892 -18.2701 -18.2617 -18.2582
   -18.2520 -18.2454 -18.2332 -18.2315 -18.2246 -18.2244 -18.2174 -18.2166
   -18.2124 -18.2116 -18.2110 -18.2082 -18.2081 -18.2024 -18.1994 -18.1983
   -18.1964 -18.1950 -18.1762 -17.9690 -17.9613 -17.9382 -17.9349 -17.9324
    -9.4130  -9.3309  -9.2685  -9.2148  -9.1694  -9.1254  -9.0797  -9.0530
    -8.9994  -8.9588  -8.9258  -8.9045  -8.8706  -8.8461  -8.8068  -8.7991
    -8.7812  -8.7556  -8.7075  -8.6962  -8.6735  -8.6182  -8.5797  -8.5191
    -5.2739  -5.2696  -5.2630  -5.2579  -5.2516  -5.2472  -5.2321  -5.2139
    -5.2051  -5.1470  -5.1345  -5.1308  -5.1241  -5.1217  -5.1205  -5.1190
    -5.1120  -5.1092  -5.0129  -4.9918  -4.9843  -4.9778  -4.9675  -4.9502
    -4.3431  -4.1258  -3.8177  -3.7682  -3.5793  -3.5414  -3.2124  -2.9667
    -0.7555  -0.6447  -0.6078  -0.5717  -0.5092  -0.4777  -0.4391  -0.4136
    -0.1484  -0.0905  -0.0464   0.0298   0.4392   0.4821   0.5085   0.5372
     0.5542   0.6045   0.6134   0.6712   0.7149   0.7292   0.7635   0.8145
     0.8570   0.8961   1.0187   1.0528   1.1003   1.1180   1.1444   1.1911
     1.2272   1.2570   1.2788   1.3031   1.3261   1.3480   1.3735   1.3820
     1.3951   1.4150   1.4449   1.4822   1.5013   1.5317   1.5395   1.5730
     1.5951   1.6272   1.6516   1.6595   1.6944   1.7080   1.7272   1.7457
     1.8041   1.8343   1.8750   1.8904   1.9352   1.9536   2.0018   2.0736
     2.1096   2.1450   2.1858   2.2601   2.3767   2.4849   2.7503   2.9145

          k = 0.1250-0.1250-0.3750 (132608 PWs)   bands (ev):

   -18.5043 -18.4953 -18.4355 -18.3699 -18.3641 -18.3551 -18.3505 -18.3469
   -18.3462 -18.3418 -18.3383 -18.3210 -18.3158 -18.3142 -18.3072 -18.3064
   -18.3027 -18.3021 -18.2977 -18.2956 -18.2892 -18.2701 -18.2617 -18.2582
   -18.2520 -18.2454 -18.2332 -18.2315 -18.2246 -18.2244 -18.2174 -18.2166
   -18.2124 -18.2116 -18.2110 -18.2082 -18.2081 -18.2024 -18.1994 -18.1983
   -18.1964 -18.1950 -18.1762 -17.9690 -17.9613 -17.9382 -17.9349 -17.9324
    -9.4126  -9.3321  -9.2688  -9.2114  -9.1750  -9.1202  -9.0786  -9.0554
    -9.0009  -8.9595  -8.9267  -8.8987  -8.8728  -8.8464  -8.8094  -8.7999
    -8.7838  -8.7479  -8.7102  -8.6964  -8.6730  -8.6183  -8.5801  -8.5189
    -5.2740  -5.2697  -5.2630  -5.2579  -5.2515  -5.2473  -5.2321  -5.2138
    -5.2053  -5.1471  -5.1346  -5.1307  -5.1241  -5.1214  -5.1207  -5.1187
    -5.1121  -5.1092  -5.0129  -4.9918  -4.9844  -4.9779  -4.9675  -4.9501
    -4.3432  -4.1250  -3.8087  -3.7823  -3.5691  -3.5469  -3.2116  -2.9678
    -0.7570  -0.6379  -0.6116  -0.5742  -0.5005  -0.4833  -0.4469  -0.4080
    -0.1315  -0.0908  -0.0547   0.0171   0.4334   0.4790   0.5182   0.5444
     0.5574   0.5824   0.6372   0.6652   0.7116   0.7311   0.7626   0.7902
     0.8753   0.9138   1.0155   1.0612   1.0995   1.1186   1.1415   1.1830
     1.2272   1.2469   1.2629   1.3081   1.3341   1.3469   1.3799   1.3874
     1.3961   1.4199   1.4519   1.4794   1.4974   1.5197   1.5385   1.5678
     1.5940   1.6161   1.6406   1.6592   1.7020   1.7237   1.7453   1.7677
     1.7900   1.8186   1.8655   1.8981   1.9268   1.9732   2.0016   2.0664
     2.0849   2.1515   2.2034   2.2448   2.3922   2.4841   2.7560   2.9071

          k = 0.3750-0.1250 0.1250 (132608 PWs)   bands (ev):

   -18.5043 -18.4953 -18.4355 -18.3699 -18.3641 -18.3551 -18.3505 -18.3469
   -18.3462 -18.3418 -18.3383 -18.3210 -18.3158 -18.3142 -18.3072 -18.3064
   -18.3027 -18.3021 -18.2977 -18.2956 -18.2892 -18.2701 -18.2617 -18.2582
   -18.2520 -18.2454 -18.2332 -18.2315 -18.2246 -18.2244 -18.2174 -18.2166
   -18.2124 -18.2116 -18.2110 -18.2082 -18.2081 -18.2024 -18.1994 -18.1983
   -18.1964 -18.1950 -18.1762 -17.9690 -17.9613 -17.9382 -17.9349 -17.9324
    -9.4108  -9.3266  -9.2710  -9.2199  -9.1786  -9.1293  -9.0974  -9.0144
    -8.9875  -8.9701  -8.9181  -8.9050  -8.8685  -8.8513  -8.8117  -8.8091
    -8.7967  -8.7415  -8.6996  -8.6943  -8.6707  -8.6263  -8.5825  -8.5161
    -5.2742  -5.2701  -5.2623  -5.2580  -5.2511  -5.2469  -5.2323  -5.2141
    -5.2052  -5.1474  -5.1364  -5.1297  -5.1231  -5.1219  -5.1213  -5.1178
    -5.1126  -5.1087  -5.0129  -4.9921  -4.9847  -4.9775  -4.9673  -4.9501
    -4.3505  -4.1010  -3.8497  -3.7672  -3.5635  -3.5332  -3.2293  -2.9672
    -0.6817  -0.6607  -0.6063  -0.5751  -0.5426  -0.4596  -0.4121  -0.3940
    -0.1734  -0.0885  -0.0511   0.0105   0.3900   0.4720   0.4908   0.5304
     0.5458   0.6039   0.6316   0.6546   0.7058   0.7365   0.7539   0.8133
     0.8611   0.8711   0.9998   1.0619   1.1173   1.1367   1.1700   1.2128
     1.2300   1.2628   1.2765   1.2971   1.3253   1.3499   1.3703   1.3943
     1.4039   1.4327   1.4544   1.4891   1.5075   1.5401   1.5495   1.5680
     1.6032   1.6280   1.6341   1.6620   1.6827   1.6994   1.7132   1.7547
     1.7867   1.8144   1.8513   1.8912   1.9224   1.9514   2.0162   2.0442
     2.0742   2.1808   2.2128   2.2722   2.3747   2.5279   2.7368   2.9355

          k =-0.3750-0.1250-0.1250 (132608 PWs)   bands (ev):

   -18.5043 -18.4953 -18.4355 -18.3699 -18.3641 -18.3551 -18.3505 -18.3469
   -18.3462 -18.3418 -18.3383 -18.3210 -18.3158 -18.3142 -18.3072 -18.3064
   -18.3027 -18.3021 -18.2977 -18.2956 -18.2892 -18.2701 -18.2617 -18.2582
   -18.2520 -18.2454 -18.2332 -18.2315 -18.2246 -18.2244 -18.2174 -18.2166
   -18.2124 -18.2116 -18.2110 -18.2082 -18.2081 -18.2024 -18.1994 -18.1983
   -18.1964 -18.1950 -18.1762 -17.9690 -17.9613 -17.9382 -17.9349 -17.9324
    -9.4101  -9.3290  -9.2687  -9.2210  -9.1795  -9.1249  -9.0973  -9.0210
    -8.9871  -8.9702  -8.9172  -8.8948  -8.8665  -8.8626  -8.8135  -8.8082
    -8.7952  -8.7407  -8.7015  -8.6927  -8.6694  -8.6270  -8.5830  -8.5159
    -5.2742  -5.2703  -5.2623  -5.2579  -5.2511  -5.2468  -5.2322  -5.2142
    -5.2053  -5.1475  -5.1364  -5.1295  -5.1231  -5.1218  -5.1212  -5.1176
    -5.1128  -5.1087  -5.0129  -4.9922  -4.9847  -4.9774  -4.9673  -4.9501
    -4.3504  -4.1006  -3.8502  -3.7673  -3.5716  -3.5241  -3.2300  -2.9671
    -0.7081  -0.6249  -0.6173  -0.5774  -0.5202  -0.4662  -0.4260  -0.3882
    -0.1998  -0.0698  -0.0428   0.0083   0.3895   0.4606   0.4970   0.5357
     0.5486   0.6099   0.6399   0.6553   0.6945   0.7399   0.7476   0.7893
     0.8618   0.8850   1.0016   1.0735   1.1142   1.1361   1.1769   1.2171
     1.2278   1.2558   1.2719   1.3060   1.3181   1.3395   1.3596   1.3731
     1.3966   1.4374   1.4542   1.4900   1.5090   1.5449   1.5686   1.5846
     1.5921   1.6198   1.6525   1.6573   1.6894   1.7039   1.7399   1.7637
     1.7767   1.8024   1.8515   1.8871   1.9151   1.9570   2.0026   2.0537
     2.0641   2.1657   2.2268   2.2581   2.4046   2.5121   2.7220   2.9503

          k = 0.3750 0.1250-0.1250 (132608 PWs)   bands (ev):

   -18.5043 -18.4953 -18.4355 -18.3699 -18.3641 -18.3551 -18.3505 -18.3469
   -18.3462 -18.3418 -18.3383 -18.3210 -18.3158 -18.3142 -18.3072 -18.3064
   -18.3027 -18.3021 -18.2977 -18.2956 -18.2892 -18.2701 -18.2617 -18.2582
   -18.2520 -18.2454 -18.2332 -18.2315 -18.2246 -18.2244 -18.2174 -18.2166
   -18.2124 -18.2116 -18.2110 -18.2082 -18.2081 -18.2024 -18.1994 -18.1983
   -18.1964 -18.1950 -18.1762 -17.9690 -17.9613 -17.9382 -17.9349 -17.9324
    -9.4111  -9.3247  -9.2734  -9.2205  -9.1760  -9.1317  -9.0951  -9.0171
    -8.9845  -8.9731  -8.9181  -8.8989  -8.8678  -8.8550  -8.8148  -8.8109
    -8.7961  -8.7350  -8.7064  -8.6925  -8.6685  -8.6272  -8.5824  -8.5161
    -5.2743  -5.2703  -5.2623  -5.2578  -5.2510  -5.2469  -5.2323  -5.2140
    -5.2053  -5.1474  -5.1364  -5.1296  -5.1231  -5.1218  -5.1214  -5.1178
    -5.1126  -5.1087  -5.0130  -4.9921  -4.9847  -4.9774  -4.9673  -4.9501
    -4.3512  -4.0967  -3.8532  -3.7724  -3.5585  -3.5304  -3.2328  -2.9661
    -0.6889  -0.6537  -0.6022  -0.5732  -0.5366  -0.4621  -0.4153  -0.3940
    -0.2022  -0.0724  -0.0460   0.0059   0.3891   0.4655   0.4950   0.5326
     0.5788   0.6084   0.6314   0.6623   0.6896   0.7289   0.7453   0.7820
     0.8663   0.8868   1.0083   1.0510   1.1396   1.1483   1.1611   1.2190
     1.2395   1.2486   1.2902   1.2992   1.3172   1.3349   1.3522   1.3817
     1.4155   1.4293   1.4516   1.5067   1.5143   1.5315   1.5458   1.5604
     1.6000   1.6164   1.6371   1.6546   1.6781   1.7020   1.7344   1.7636
     1.7797   1.8249   1.8456   1.8959   1.9236   1.9598   2.0071   2.0398
     2.0747   2.1832   2.2053   2.2651   2.3893   2.5324   2.7232   2.9474

          k =-0.3750 0.1250 0.1250 (132608 PWs)   bands (ev):

   -18.5043 -18.4953 -18.4355 -18.3699 -18.3641 -18.3551 -18.3505 -18.3469
   -18.3462 -18.3418 -18.3383 -18.3210 -18.3158 -18.3142 -18.3072 -18.3064
   -18.3027 -18.3021 -18.2977 -18.2956 -18.2892 -18.2701 -18.2617 -18.2582
   -18.2520 -18.2454 -18.2332 -18.2315 -18.2246 -18.2244 -18.2174 -18.2166
   -18.2124 -18.2116 -18.2110 -18.2082 -18.2081 -18.2024 -18.1994 -18.1983
   -18.1964 -18.1950 -18.1762 -17.9690 -17.9613 -17.9382 -17.9349 -17.9324
    -9.4109  -9.3235  -9.2783  -9.2160  -9.1785  -9.1277  -9.0956  -9.0201
    -8.9856  -8.9724  -8.9194  -8.8953  -8.8698  -8.8541  -8.8172  -8.8097
    -8.7943  -8.7362  -8.7046  -8.6939  -8.6687  -8.6267  -8.5828  -8.5159
    -5.2743  -5.2702  -5.2623  -5.2579  -5.2510  -5.2469  -5.2323  -5.2141
    -5.2054  -5.1475  -5.1364  -5.1296  -5.1230  -5.1218  -5.1212  -5.1176
    -5.1127  -5.1088  -5.0129  -4.9922  -4.9848  -4.9775  -4.9673  -4.9501
    -4.3511  -4.0967  -3.8583  -3.7642  -3.5734  -3.5182  -3.2323  -2.9671
    -0.7047  -0.6516  -0.6015  -0.5696  -0.5206  -0.4591  -0.4236  -0.3927
    -0.1806  -0.0886  -0.0591   0.0097   0.3879   0.4790   0.4933   0.5159
     0.5747   0.6078   0.6269   0.6500   0.7041   0.7298   0.7527   0.8046
     0.8566   0.8812   1.0042   1.0758   1.1264   1.1466   1.1656   1.2146
     1.2207   1.2571   1.2778   1.2889   1.3179   1.3375   1.3573   1.3781
     1.4049   1.4219   1.4759   1.4802   1.5259   1.5419   1.5661   1.5882
     1.5992   1.6176   1.6439   1.6542   1.6777   1.6988   1.7360   1.7514
     1.7861   1.8050   1.8544   1.8808   1.9200   1.9468   2.0095   2.0471
     2.0790   2.1589   2.2136   2.2845   2.4044   2.5077   2.7388   2.9362

          k =-0.1250 0.3750 0.1250 (132608 PWs)   bands (ev):

   -18.5043 -18.4953 -18.4355 -18.3699 -18.3641 -18.3551 -18.3506 -18.3469
   -18.3462 -18.3418 -18.3383 -18.3210 -18.3158 -18.3142 -18.3072 -18.3064
   -18.3027 -18.3021 -18.2977 -18.2956 -18.2892 -18.2701 -18.2617 -18.2582
   -18.2520 -18.2454 -18.2332 -18.2315 -18.2247 -18.2244 -18.2174 -18.2166
   -18.2124 -18.2116 -18.2110 -18.2082 -18.2081 -18.2024 -18.1994 -18.1983
   -18.1964 -18.1950 -18.1762 -17.9690 -17.9613 -17.9382 -17.9349 -17.9324
    -9.4144  -9.3288  -9.2608  -9.2184  -9.1826  -9.1165  -9.0955  -9.0402
    -8.9967  -8.9555  -8.9229  -8.9044  -8.8712  -8.8284  -8.8178  -8.8117
    -8.7837  -8.7616  -8.7112  -8.6840  -8.6691  -8.6273  -8.5716  -8.5225
    -5.2742  -5.2707  -5.2622  -5.2579  -5.2513  -5.2469  -5.2319  -5.2136
    -5.2051  -5.1471  -5.1363  -5.1294  -5.1236  -5.1222  -5.1212  -5.1175
    -5.1117  -5.1101  -5.0129  -4.9920  -4.9848  -4.9777  -4.9674  -4.9501
    -4.3506  -4.1235  -3.8086  -3.7917  -3.5596  -3.5353  -3.2251  -2.9416
    -0.7208  -0.6867  -0.6239  -0.5868  -0.5326  -0.5073  -0.4448  -0.4165
    -0.1112  -0.0754  -0.0449   0.0152   0.4267   0.4818   0.5107   0.5316
     0.5579   0.5877   0.6142   0.6841   0.7185   0.7382   0.7870   0.8088
     0.8886   0.9261   1.0067   1.0396   1.0833   1.1208   1.1349   1.1772
     1.2267   1.2419   1.2690   1.2976   1.3110   1.3282   1.3561   1.3810
     1.4121   1.4318   1.4581   1.4775   1.5044   1.5281   1.5736   1.5938
     1.6057   1.6254   1.6421   1.6700   1.6893   1.7052   1.7266   1.7597
     1.7892   1.8190   1.8528   1.9038   1.9313   1.9730   2.0331   2.0481
     2.1231   2.1603   2.2168   2.2605   2.4094   2.4831   2.7338   2.9520

          k =-0.1250-0.3750-0.1250 (132608 PWs)   bands (ev):

   -18.5043 -18.4953 -18.4355 -18.3699 -18.3641 -18.3551 -18.3506 -18.3469
   -18.3462 -18.3418 -18.3383 -18.3210 -18.3158 -18.3142 -18.3072 -18.3064
   -18.3027 -18.3021 -18.2977 -18.2956 -18.2892 -18.2701 -18.2617 -18.2582
   -18.2520 -18.2454 -18.2332 -18.2315 -18.2247 -18.2244 -18.2174 -18.2166
   -18.2124 -18.2116 -18.2110 -18.2082 -18.2081 -18.2024 -18.1994 -18.1983
   -18.1964 -18.1950 -18.1762 -17.9690 -17.9613 -17.9382 -17.9349 -17.9324
    -9.4141  -9.3305  -9.2575  -9.2203  -9.1817  -9.1222  -9.0902  -9.0400
    -8.9987  -8.9545  -8.9200  -8.9067  -8.8710  -8.8342  -8.8158  -8.8055
    -8.7825  -8.7675  -8.7089  -8.6845  -8.6687  -8.6275  -8.5717  -8.5225
    -5.2741  -5.2708  -5.2622  -5.2578  -5.2514  -5.2468  -5.2319  -5.2138
    -5.2050  -5.1471  -5.1363  -5.1294  -5.1237  -5.1223  -5.1212  -5.1175
    -5.1119  -5.1099  -5.0129  -4.9921  -4.9846  -4.9777  -4.9674  -4.9501
    -4.3506  -4.1233  -3.8250  -3.7703  -3.5831  -3.5164  -3.2260  -2.9412
    -0.7254  -0.6764  -0.6241  -0.5832  -0.5350  -0.5229  -0.4512  -0.4067
    -0.1089  -0.0816  -0.0298   0.0152   0.4213   0.4755   0.5139   0.5328
     0.5509   0.5978   0.6284   0.6839   0.7194   0.7416   0.7554   0.7983
     0.9200   0.9306   0.9999   1.0529   1.0743   1.1126   1.1460   1.1578
     1.2158   1.2227   1.2707   1.2957   1.3152   1.3411   1.3563   1.3883
     1.4102   1.4285   1.4613   1.4924   1.5149   1.5346   1.5496   1.5841
     1.6116   1.6296   1.6593   1.6744   1.6887   1.6991   1.7291   1.7574
     1.7735   1.8191   1.8537   1.9226   1.9323   1.9805   2.0257   2.0440
     2.1090   2.1623   2.2227   2.2633   2.4078   2.4780   2.7159   2.9684

          k = 0.1250 0.3750-0.1250 (132608 PWs)   bands (ev):

   -18.5043 -18.4953 -18.4355 -18.3699 -18.3641 -18.3551 -18.3506 -18.3469
   -18.3462 -18.3418 -18.3383 -18.3210 -18.3158 -18.3142 -18.3072 -18.3064
   -18.3027 -18.3021 -18.2977 -18.2956 -18.2892 -18.2701 -18.2617 -18.2582
   -18.2520 -18.2454 -18.2332 -18.2315 -18.2247 -18.2244 -18.2174 -18.2166
   -18.2124 -18.2116 -18.2110 -18.2082 -18.2081 -18.2024 -18.1994 -18.1983
   -18.1964 -18.1950 -18.1762 -17.9690 -17.9613 -17.9382 -17.9349 -17.9324
    -9.4150  -9.3263  -9.2618  -9.2237  -9.1747  -9.1243  -9.0918  -9.0414
    -8.9944  -8.9549  -8.9223  -8.9050  -8.8726  -8.8276  -8.8185  -8.8107
    -8.7852  -8.7607  -8.7129  -8.6833  -8.6681  -8.6278  -8.5712  -8.5227
    -5.2742  -5.2708  -5.2622  -5.2578  -5.2513  -5.2469  -5.2319  -5.2136
    -5.2050  -5.1470  -5.1363  -5.1294  -5.1238  -5.1222  -5.1213  -5.1177
    -5.1116  -5.1100  -5.0130  -4.9920  -4.9847  -4.9777  -4.9674  -4.9501
    -4.3513  -4.1209  -3.8138  -3.7909  -3.5564  -3.5342  -3.2288  -2.9396
    -0.7156  -0.6789  -0.6248  -0.6046  -0.5262  -0.5088  -0.4466  -0.4186
    -0.1161  -0.0748  -0.0341   0.0134   0.4372   0.4657   0.5105   0.5279
     0.5540   0.5914   0.6283   0.6854   0.7217   0.7455   0.7748   0.7893
     0.8967   0.9473   0.9980   1.0439   1.0772   1.1098   1.1444   1.1705
     1.2440   1.2555   1.2791   1.2939   1.3110   1.3247   1.3382   1.3732
     1.4062   1.4364   1.4538   1.4824   1.5116   1.5282   1.5595   1.5869
     1.6184   1.6210   1.6382   1.6655   1.6824   1.7036   1.7214   1.7581
     1.7922   1.8168   1.8692   1.9161   1.9320   1.9806   2.0269   2.0551
     2.1151   2.1498   2.2325   2.2549   2.3956   2.4928   2.7276   2.9618

          k = 0.1250-0.3750 0.1250 (132608 PWs)   bands (ev):

   -18.5043 -18.4953 -18.4355 -18.3699 -18.3641 -18.3551 -18.3506 -18.3469
   -18.3462 -18.3418 -18.3383 -18.3210 -18.3158 -18.3142 -18.3072 -18.3064
   -18.3027 -18.3021 -18.2977 -18.2956 -18.2892 -18.2701 -18.2617 -18.2582
   -18.2520 -18.2454 -18.2332 -18.2315 -18.2247 -18.2244 -18.2174 -18.2166
   -18.2124 -18.2116 -18.2110 -18.2082 -18.2081 -18.2024 -18.1994 -18.1983
   -18.1964 -18.1950 -18.1762 -17.9690 -17.9613 -17.9382 -17.9349 -17.9324
    -9.4151  -9.3251  -9.2664  -9.2166  -9.1797  -9.1215  -9.0950  -9.0360
    -8.9982  -8.9534  -8.9218  -8.9113  -8.8706  -8.8280  -8.8153  -8.8052
    -8.7841  -8.7697  -8.7094  -8.6846  -8.6687  -8.6271  -8.5712  -8.5227
    -5.2741  -5.2707  -5.2622  -5.2579  -5.2514  -5.2468  -5.2319  -5.2137
    -5.2049  -5.1470  -5.1363  -5.1295  -5.1237  -5.1223  -5.1212  -5.1177
    -5.1114  -5.1102  -5.0129  -4.9920  -4.9846  -4.9777  -4.9674  -4.9501
    -4.3512  -4.1212  -3.8316  -3.7670  -3.5773  -3.5192  -3.2282  -2.9403
    -0.7271  -0.6827  -0.6122  -0.5934  -0.5421  -0.5055  -0.4443  -0.4103
    -0.1178  -0.0666  -0.0480   0.0136   0.4374   0.4663   0.5140   0.5255
     0.5660   0.5894   0.6106   0.6784   0.7217   0.7467   0.7708   0.8185
     0.9029   0.9231   1.0127   1.0564   1.0777   1.1069   1.1512   1.1627
     1.2071   1.2211   1.2682   1.2761   1.3230   1.3419   1.3602   1.4005
     1.4092   1.4302   1.4545   1.4905   1.5140   1.5342   1.5602   1.5912
     1.6097   1.6284   1.6529   1.6641   1.6847   1.7034   1.7208   1.7446
     1.7826   1.8148   1.8697   1.8963   1.9283   1.9761   2.0417   2.0675
     2.1072   2.1554   2.2331   2.2665   2.3973   2.4750   2.7267   2.9611

          k =-0.1250-0.3750 0.3750 (132616 PWs)   bands (ev):

   -18.5043 -18.4953 -18.4355 -18.3699 -18.3641 -18.3551 -18.3506 -18.3469
   -18.3462 -18.3418 -18.3383 -18.3210 -18.3158 -18.3142 -18.3072 -18.3064
   -18.3027 -18.3021 -18.2977 -18.2956 -18.2892 -18.2701 -18.2617 -18.2582
   -18.2520 -18.2454 -18.2332 -18.2315 -18.2247 -18.2244 -18.2174 -18.2166
   -18.2124 -18.2116 -18.2110 -18.2082 -18.2081 -18.2024 -18.1994 -18.1983
   -18.1964 -18.1950 -18.1762 -17.9690 -17.9613 -17.9382 -17.9349 -17.9324
    -9.4013  -9.3136  -9.2822  -9.2295  -9.1751  -9.1239  -9.0968  -9.0655
    -9.0000  -8.9454  -8.9287  -8.8993  -8.8755  -8.8230  -8.8049  -8.7942
    -8.7813  -8.7445  -8.7126  -8.6956  -8.6749  -8.6217  -8.5819  -8.5256
    -5.2740  -5.2696  -5.2630  -5.2576  -5.2515  -5.2470  -5.2322  -5.2138
    -5.2052  -5.1471  -5.1350  -5.1304  -5.1241  -5.1226  -5.1206  -5.1184
    -5.1111  -5.1097  -5.0130  -4.9917  -4.9845  -4.9779  -4.9677  -4.9501
    -4.2264  -4.0372  -3.9388  -3.7501  -3.6499  -3.4520  -3.3713  -3.1518
    -0.7054  -0.6244  -0.5481  -0.5222  -0.3419  -0.2421  -0.2040  -0.1089
    -0.0828  -0.0379   0.0583   0.1138   0.3481   0.4529   0.4653   0.4951
     0.5410   0.5591   0.5931   0.6131   0.6533   0.6618   0.7138   0.7403
     0.7880   0.8846   0.9372   0.9635   0.9812   1.0302   1.0715   1.1053
     1.1515   1.1883   1.2212   1.2514   1.2726   1.3124   1.3450   1.3854
     1.4069   1.4421   1.4619   1.4698   1.5144   1.5392   1.5742   1.6172
     1.6247   1.6424   1.6697   1.6815   1.6997   1.7570   1.7834   1.7989
     1.8247   1.8434   1.8816   1.9080   1.9182   1.9569   1.9719   1.9988
     2.0253   2.0574   2.1148   2.1778   2.2463   2.3780   2.5063   2.6780

          k =-0.1250 0.3750-0.3750 (132616 PWs)   bands (ev):

   -18.5043 -18.4953 -18.4355 -18.3699 -18.3641 -18.3551 -18.3506 -18.3469
   -18.3462 -18.3418 -18.3383 -18.3210 -18.3158 -18.3142 -18.3072 -18.3064
   -18.3027 -18.3021 -18.2977 -18.2956 -18.2892 -18.2701 -18.2617 -18.2582
   -18.2520 -18.2454 -18.2332 -18.2315 -18.2247 -18.2244 -18.2174 -18.2166
   -18.2124 -18.2116 -18.2110 -18.2082 -18.2081 -18.2024 -18.1994 -18.1983
   -18.1964 -18.1950 -18.1762 -17.9690 -17.9613 -17.9382 -17.9349 -17.9324
    -9.4012  -9.3148  -9.2807  -9.2277  -9.1788  -9.1280  -9.0909  -9.0607
    -9.0073  -8.9441  -8.9263  -8.9036  -8.8733  -8.8234  -8.8054  -8.7926
    -8.7752  -8.7533  -8.7088  -8.6964  -8.6756  -8.6213  -8.5819  -8.5257
    -5.2739  -5.2695  -5.2630  -5.2577  -5.2516  -5.2470  -5.2322  -5.2139
    -5.2051  -5.1471  -5.1350  -5.1305  -5.1241  -5.1225  -5.1206  -5.1184
    -5.1109  -5.1098  -5.0129  -4.9917  -4.9844  -4.9779  -4.9676  -4.9502
    -4.2259  -4.0371  -3.9423  -3.7437  -3.6546  -3.4494  -3.3711  -3.1533
    -0.7158  -0.6153  -0.5476  -0.5160  -0.3473  -0.2482  -0.2008  -0.1105
    -0.0783  -0.0309   0.0570   0.1124   0.3431   0.4366   0.4754   0.4942
     0.5457   0.5716   0.5969   0.6127   0.6441   0.6592   0.7033   0.7362
     0.8131   0.8820   0.9389   0.9592   0.9849   1.0332   1.0468   1.1125
     1.1532   1.1686   1.2243   1.2519   1.2772   1.3095   1.3511   1.3860
     1.4049   1.4391   1.4610   1.4710   1.5123   1.5531   1.5770   1.6127
     1.6345   1.6643   1.6780   1.6955   1.7050   1.7286   1.7697   1.7960
     1.8266   1.8436   1.8585   1.8944   1.9192   1.9556   1.9735   1.9925
     2.0436   2.0657   2.1247   2.1774   2.2484   2.3832   2.4991   2.6682

          k = 0.1250-0.3750-0.3750 (132616 PWs)   bands (ev):

   -18.5043 -18.4953 -18.4355 -18.3699 -18.3641 -18.3551 -18.3505 -18.3469
   -18.3462 -18.3418 -18.3383 -18.3210 -18.3158 -18.3142 -18.3072 -18.3064
   -18.3027 -18.3021 -18.2977 -18.2956 -18.2892 -18.2701 -18.2617 -18.2582
   -18.2520 -18.2454 -18.2332 -18.2315 -18.2247 -18.2244 -18.2174 -18.2166
   -18.2124 -18.2116 -18.2110 -18.2082 -18.2081 -18.2024 -18.1994 -18.1983
   -18.1964 -18.1950 -18.1762 -17.9690 -17.9613 -17.9382 -17.9349 -17.9324
    -9.4000  -9.3223  -9.2712  -9.2288  -9.1839  -9.1224  -9.0889  -9.0666
    -9.0058  -8.9459  -8.9270  -8.8982  -8.8748  -8.8248  -8.8054  -8.7948
    -8.7796  -8.7440  -8.7116  -8.6956  -8.6761  -8.6214  -8.5824  -8.5254
    -5.2740  -5.2696  -5.2630  -5.2577  -5.2515  -5.2470  -5.2321  -5.2138
    -5.2053  -5.1472  -5.1350  -5.1304  -5.1241  -5.1224  -5.1207  -5.1181
    -5.1112  -5.1097  -5.0129  -4.9918  -4.9845  -4.9779  -4.9676  -4.9501
    -4.2232  -4.0541  -3.9161  -3.7682  -3.6345  -3.4731  -3.3510  -3.1574
    -0.7149  -0.6148  -0.5529  -0.5050  -0.3610  -0.2399  -0.2159  -0.1167
    -0.0682  -0.0012   0.0613   0.0982   0.3170   0.4461   0.4771   0.4946
     0.5460   0.5735   0.5805   0.6148   0.6540   0.6751   0.7030   0.7412
     0.7940   0.8877   0.9262   0.9657   0.9966   1.0089   1.0495   1.1242
     1.1297   1.2091   1.2241   1.2410   1.2926   1.3277   1.3517   1.3673
     1.3867   1.4426   1.4633   1.4813   1.5171   1.5383   1.5778   1.6055
     1.6174   1.6626   1.6698   1.6779   1.7265   1.7455   1.7841   1.8027
     1.8255   1.8347   1.8696   1.8956   1.9149   1.9490   1.9657   2.0024
     2.0436   2.0760   2.0958   2.1620   2.2719   2.3939   2.4983   2.6629

          k = 0.3750 0.1250-0.3750 (132616 PWs)   bands (ev):

   -18.5043 -18.4953 -18.4355 -18.3699 -18.3641 -18.3551 -18.3505 -18.3469
   -18.3462 -18.3418 -18.3383 -18.3210 -18.3158 -18.3142 -18.3072 -18.3064
   -18.3027 -18.3021 -18.2977 -18.2956 -18.2892 -18.2701 -18.2617 -18.2582
   -18.2520 -18.2454 -18.2332 -18.2315 -18.2246 -18.2244 -18.2174 -18.2166
   -18.2124 -18.2116 -18.2110 -18.2082 -18.2081 -18.2024 -18.1994 -18.1983
   -18.1964 -18.1950 -18.1762 -17.9690 -17.9613 -17.9382 -17.9349 -17.9324
    -9.3967  -9.3140  -9.2912  -9.2236  -9.1721  -9.1375  -9.1043  -9.0524
    -8.9819  -8.9685  -8.9183  -8.8954  -8.8580  -8.8448  -8.8102  -8.8021
    -8.7809  -8.7319  -8.7119  -8.6936  -8.6719  -8.6222  -8.5920  -8.5214
    -5.2741  -5.2694  -5.2632  -5.2575  -5.2516  -5.2471  -5.2322  -5.2137
    -5.2051  -5.1473  -5.1344  -5.1309  -5.1243  -5.1216  -5.1203  -5.1191
    -5.1120  -5.1089  -5.0130  -4.9919  -4.9844  -4.9776  -4.9675  -4.9501
    -4.2264  -4.0154  -3.9453  -3.7265  -3.6783  -3.4329  -3.4035  -3.1731
    -0.6587  -0.5563  -0.5103  -0.4501  -0.3637  -0.2979  -0.2439  -0.1527
    -0.0639  -0.0316   0.0564   0.1121   0.3017   0.4470   0.4802   0.5011
     0.5205   0.5533   0.5825   0.6235   0.6456   0.6528   0.6931   0.7326
     0.7763   0.8819   0.9239   0.9908   1.0129   1.0595   1.0968   1.1167
     1.1510   1.1906   1.2093   1.2416   1.2972   1.3086   1.3321   1.3835
     1.4089   1.4307   1.4540   1.4858   1.5114   1.5544   1.5749   1.6056
     1.6314   1.6474   1.6823   1.6919   1.7186   1.7390   1.7583   1.7717
     1.7878   1.8245   1.8655   1.8975   1.9169   1.9465   1.9757   1.9879
     2.0113   2.0633   2.1064   2.1747   2.2850   2.4017   2.4826   2.6689

          k =-0.3750-0.1250-0.3750 (132616 PWs)   bands (ev):

   -18.5043 -18.4953 -18.4355 -18.3699 -18.3641 -18.3551 -18.3505 -18.3469
   -18.3462 -18.3418 -18.3383 -18.3210 -18.3158 -18.3142 -18.3072 -18.3064
   -18.3027 -18.3021 -18.2977 -18.2956 -18.2892 -18.2701 -18.2617 -18.2582
   -18.2520 -18.2454 -18.2332 -18.2315 -18.2246 -18.2244 -18.2174 -18.2166
   -18.2124 -18.2116 -18.2110 -18.2082 -18.2081 -18.2024 -18.1994 -18.1983
   -18.1964 -18.1950 -18.1762 -17.9690 -17.9613 -17.9382 -17.9349 -17.9324
    -9.3950  -9.3249  -9.2784  -9.2288  -9.1709  -9.1374  -9.0991  -9.0588
    -8.9816  -8.9689  -8.9177  -8.8921  -8.8587  -8.8490  -8.8091  -8.8006
    -8.7773  -8.7407  -8.7063  -8.6925  -8.6733  -8.6215  -8.5930  -8.5212
    -5.2741  -5.2693  -5.2632  -5.2576  -5.2517  -5.2470  -5.2321  -5.2140
    -5.2051  -5.1474  -5.1345  -5.1307  -5.1244  -5.1213  -5.1206  -5.1186
    -5.1122  -5.1089  -5.0129  -4.9920  -4.9843  -4.9777  -4.9675  -4.9501
    -4.2222  -4.0469  -3.8981  -3.7745  -3.6350  -3.4852  -3.3616  -3.1781
    -0.6598  -0.5608  -0.5039  -0.4572  -0.3629  -0.3168  -0.2082  -0.1667
    -0.0839   0.0144   0.0514   0.1183   0.3109   0.4031   0.4729   0.4858
     0.5101   0.5415   0.6089   0.6210   0.6419   0.6674   0.7182   0.7368
     0.8090   0.8391   0.9276   0.9703   1.0203   1.0415   1.0978   1.1305
     1.1602   1.1875   1.2239   1.2530   1.2682   1.3100   1.3371   1.3589
     1.3986   1.4453   1.4571   1.4924   1.5100   1.5650   1.5791   1.5991
     1.6326   1.6578   1.6931   1.7086   1.7276   1.7435   1.7559   1.7683
     1.8002   1.8253   1.8526   1.8720   1.9040   1.9415   1.9590   2.0081
     2.0155   2.0536   2.1103   2.1872   2.2795   2.3903   2.4886   2.6671

          k = 0.3750-0.1250 0.3750 (132616 PWs)   bands (ev):

   -18.5043 -18.4953 -18.4355 -18.3699 -18.3641 -18.3551 -18.3505 -18.3469
   -18.3462 -18.3418 -18.3383 -18.3210 -18.3158 -18.3142 -18.3072 -18.3064
   -18.3027 -18.3021 -18.2977 -18.2956 -18.2892 -18.2701 -18.2617 -18.2582
   -18.2520 -18.2454 -18.2332 -18.2315 -18.2246 -18.2244 -18.2174 -18.2166
   -18.2124 -18.2116 -18.2110 -18.2082 -18.2081 -18.2024 -18.1994 -18.1983
   -18.1964 -18.1950 -18.1762 -17.9690 -17.9613 -17.9382 -17.9349 -17.9324
    -9.3959  -9.3229  -9.2779  -9.2293  -9.1717  -9.1414  -9.0992  -9.0516
    -8.9865  -8.9661  -8.9170  -8.8983  -8.8567  -8.8451  -8.8095  -8.8011
    -8.7780  -8.7403  -8.7056  -8.6930  -8.6747  -8.6213  -8.5923  -8.5214
    -5.2741  -5.2692  -5.2632  -5.2576  -5.2517  -5.2471  -5.2322  -5.2139
    -5.2050  -5.1472  -5.1344  -5.1309  -5.1243  -5.1216  -5.1203  -5.1191
    -5.1120  -5.1090  -5.0130  -4.9919  -4.9843  -4.9777  -4.9675  -4.9502
    -4.2223  -4.0458  -3.8991  -3.7771  -3.6301  -3.4854  -3.3639  -3.1777
    -0.6618  -0.5492  -0.5085  -0.4504  -0.3769  -0.3221  -0.2115  -0.1503
    -0.0899   0.0104   0.0521   0.1214   0.3077   0.4149   0.4654   0.4906
     0.5059   0.5497   0.5997   0.6203   0.6380   0.6726   0.7123   0.7333
     0.8175   0.8434   0.9204   0.9831   1.0076   1.0362   1.1081   1.1234
     1.1669   1.1897   1.2020   1.2636   1.2803   1.3039   1.3367   1.3835
     1.4005   1.4308   1.4584   1.5125   1.5237   1.5481   1.5733   1.6018
     1.6365   1.6626   1.6730   1.6964   1.7043   1.7221   1.7389   1.7717
     1.8131   1.8413   1.8541   1.8837   1.9063   1.9418   1.9672   2.0018
     2.0115   2.0647   2.1135   2.1836   2.2702   2.4245   2.4861   2.6470

          k =-0.3750 0.1250 0.3750 (132616 PWs)   bands (ev):

   -18.5043 -18.4953 -18.4355 -18.3699 -18.3641 -18.3551 -18.3505 -18.3469
   -18.3462 -18.3418 -18.3383 -18.3210 -18.3158 -18.3142 -18.3072 -18.3064
   -18.3027 -18.3021 -18.2977 -18.2956 -18.2892 -18.2701 -18.2617 -18.2582
   -18.2520 -18.2454 -18.2332 -18.2315 -18.2246 -18.2244 -18.2174 -18.2166
   -18.2124 -18.2116 -18.2110 -18.2082 -18.2081 -18.2024 -18.1994 -18.1983
   -18.1964 -18.1950 -18.1762 -17.9690 -17.9613 -17.9382 -17.9349 -17.9324
    -9.3961  -9.3166  -9.2898  -9.2219  -9.1762  -9.1370  -9.0960  -9.0570
    -8.9878  -8.9657  -8.9188  -8.8912  -8.8565  -8.8483  -8.8119  -8.8013
    -8.7796  -8.7319  -8.7119  -8.6937  -8.6719  -8.6218  -8.5927  -8.5212
    -5.2741  -5.2693  -5.2632  -5.2576  -5.2516  -5.2471  -5.2321  -5.2138
    -5.2052  -5.1473  -5.1345  -5.1308  -5.1243  -5.1213  -5.1206  -5.1188
    -5.1122  -5.1090  -5.0129  -4.9919  -4.9844  -4.9777  -4.9675  -4.9501
    -4.2259  -4.0159  -3.9461  -3.7320  -3.6721  -3.4326  -3.4014  -3.1755
    -0.6665  -0.5512  -0.5153  -0.4466  -0.3569  -0.3010  -0.2298  -0.1542
    -0.0724  -0.0234   0.0595   0.0984   0.2982   0.4459   0.4629   0.4941
     0.5210   0.5558   0.5933   0.6253   0.6454   0.6713   0.6959   0.7344
     0.7690   0.8837   0.9201   1.0011   1.0160   1.0661   1.0834   1.1037
     1.1429   1.1815   1.2100   1.2726   1.2792   1.2953   1.3419   1.3917
     1.4000   1.4243   1.4675   1.4831   1.5235   1.5545   1.5744   1.6239
     1.6372   1.6582   1.6863   1.6924   1.7012   1.7261   1.7431   1.7838
     1.7993   1.8087   1.8658   1.8784   1.9254   1.9467   1.9700   1.9830
     2.0113   2.0612   2.1063   2.2170   2.2508   2.4220   2.4928   2.6459

          k = 0.3750-0.3750 0.1250 (132616 PWs)   bands (ev):

   -18.5043 -18.4953 -18.4355 -18.3699 -18.3641 -18.3551 -18.3505 -18.3469
   -18.3462 -18.3418 -18.3383 -18.3210 -18.3158 -18.3142 -18.3072 -18.3064
   -18.3027 -18.3021 -18.2977 -18.2956 -18.2892 -18.2701 -18.2617 -18.2582
   -18.2520 -18.2454 -18.2332 -18.2315 -18.2247 -18.2244 -18.2174 -18.2166
   -18.2124 -18.2116 -18.2110 -18.2082 -18.2081 -18.2024 -18.1994 -18.1983
   -18.1964 -18.1950 -18.1762 -17.9690 -17.9613 -17.9382 -17.9349 -17.9324
    -9.3969  -9.3192  -9.2763  -9.2234  -9.1908  -9.1414  -9.1111  -9.0234
    -8.9870  -8.9591  -8.9163  -8.9057  -8.8677  -8.8342  -8.8115  -8.8050
    -8.7824  -8.7413  -8.7059  -8.6916  -8.6706  -8.6277  -8.5845  -8.5239
    -5.2742  -5.2702  -5.2623  -5.2580  -5.2511  -5.2467  -5.2322  -5.2141
    -5.2051  -5.1470  -5.1362  -5.1294  -5.1237  -5.1221  -5.1211  -5.1178
    -5.1114  -5.1102  -5.0130  -4.9922  -4.9847  -4.9776  -4.9673  -4.9502
    -4.2286  -4.0095  -3.9696  -3.7359  -3.6570  -3.4251  -3.4027  -3.1555
    -0.6587  -0.6177  -0.5530  -0.4832  -0.3683  -0.2552  -0.1602  -0.1401
    -0.0757  -0.0401   0.0349   0.1132   0.3379   0.4158   0.4615   0.4892
     0.5190   0.5643   0.5832   0.6021   0.6360   0.6636   0.7099   0.7575
     0.8076   0.8518   0.9108   0.9871   1.0158   1.0449   1.0842   1.1297
     1.1463   1.1694   1.2255   1.2441   1.2608   1.3069   1.3334   1.3653
     1.4166   1.4335   1.4597   1.5167   1.5384   1.5507   1.5841   1.6146
     1.6299   1.6521   1.6765   1.6890   1.7085   1.7445   1.7563   1.7721
     1.8065   1.8392   1.8498   1.8796   1.8963   1.9439   1.9819   2.0127
     2.0308   2.0797   2.1016   2.2279   2.2829   2.3990   2.4977   2.6916

          k =-0.3750-0.3750-0.1250 (132616 PWs)   bands (ev):

   -18.5043 -18.4953 -18.4355 -18.3699 -18.3641 -18.3551 -18.3505 -18.3469
   -18.3462 -18.3418 -18.3383 -18.3210 -18.3158 -18.3142 -18.3072 -18.3064
   -18.3027 -18.3021 -18.2977 -18.2956 -18.2892 -18.2701 -18.2617 -18.2582
   -18.2520 -18.2454 -18.2332 -18.2315 -18.2247 -18.2244 -18.2174 -18.2166
   -18.2124 -18.2116 -18.2110 -18.2082 -18.2081 -18.2024 -18.1994 -18.1983
   -18.1964 -18.1950 -18.1762 -17.9690 -17.9613 -17.9382 -17.9349 -17.9324
    -9.3957  -9.3240  -9.2709  -9.2252  -9.1930  -9.1370  -9.1108  -9.0280
    -8.9868  -8.9609  -8.9127  -8.9009  -8.8684  -8.8399  -8.8122  -8.8051
    -8.7810  -8.7403  -8.7071  -8.6907  -8.6693  -8.6284  -8.5850  -8.5237
    -5.2742  -5.2703  -5.2623  -5.2579  -5.2512  -5.2467  -5.2322  -5.2142
    -5.2051  -5.1471  -5.1362  -5.1293  -5.1237  -5.1222  -5.1211  -5.1175
    -5.1120  -5.1098  -5.0129  -4.9923  -4.9847  -4.9775  -4.9674  -4.9502
    -4.2285  -4.0113  -3.9650  -3.7497  -3.6444  -3.4241  -3.4056  -3.1552
    -0.6708  -0.6061  -0.5614  -0.4751  -0.3345  -0.2484  -0.2268  -0.1442
    -0.0752  -0.0375   0.0583   0.1337   0.3198   0.3973   0.4678   0.5145
     0.5275   0.5509   0.5796   0.6172   0.6447   0.6748   0.6991   0.7315
     0.7783   0.8772   0.9038   0.9965   1.0090   1.0527   1.0805   1.1117
     1.1713   1.1897   1.2154   1.2435   1.2612   1.2792   1.3251   1.3710
     1.4048   1.4304   1.4615   1.5267   1.5330   1.5815   1.5918   1.6041
     1.6186   1.6662   1.6777   1.6942   1.7221   1.7330   1.7633   1.7856
     1.7924   1.8242   1.8502   1.8978   1.9154   1.9445   1.9651   1.9963
     2.0168   2.0701   2.1070   2.2360   2.2774   2.4273   2.4580   2.7084

          k = 0.3750 0.3750-0.1250 (132616 PWs)   bands (ev):

   -18.5043 -18.4953 -18.4355 -18.3699 -18.3641 -18.3551 -18.3505 -18.3469
   -18.3462 -18.3418 -18.3383 -18.3210 -18.3158 -18.3142 -18.3072 -18.3064
   -18.3027 -18.3021 -18.2977 -18.2956 -18.2892 -18.2701 -18.2617 -18.2582
   -18.2520 -18.2454 -18.2332 -18.2315 -18.2247 -18.2244 -18.2174 -18.2166
   -18.2124 -18.2116 -18.2110 -18.2082 -18.2081 -18.2024 -18.1994 -18.1983
   -18.1964 -18.1950 -18.1762 -17.9690 -17.9613 -17.9382 -17.9349 -17.9324
    -9.3967  -9.3214  -9.2708  -9.2300  -9.1871  -9.1432  -9.1091  -9.0268
    -8.9842  -8.9621  -8.9091  -8.9062  -8.8694  -8.8341  -8.8151  -8.8083
    -8.7811  -8.7348  -8.7114  -8.6897  -8.6696  -8.6286  -8.5844  -8.5239
    -5.2742  -5.2703  -5.2623  -5.2578  -5.2510  -5.2468  -5.2323  -5.2140
    -5.2052  -5.1470  -5.1362  -5.1293  -5.1237  -5.1220  -5.1212  -5.1177
    -5.1116  -5.1100  -5.0131  -4.9922  -4.9847  -4.9775  -4.9673  -4.9501
    -4.2292  -4.0092  -3.9640  -3.7589  -3.6339  -3.4293  -3.4059  -3.1535
    -0.6589  -0.6150  -0.5509  -0.4872  -0.3339  -0.2528  -0.2351  -0.1387
    -0.0789  -0.0307   0.0545   0.1296   0.3312   0.3932   0.4798   0.5092
     0.5409   0.5475   0.5776   0.6035   0.6364   0.6707   0.7155   0.7334
     0.7768   0.8758   0.9074   0.9836   1.0067   1.0431   1.0844   1.1256
     1.1849   1.2056   1.2286   1.2394   1.2600   1.2919   1.3238   1.3460
     1.4019   1.4243   1.4645   1.5064   1.5365   1.5723   1.5930   1.6146
     1.6312   1.6403   1.6624   1.6838   1.6932   1.7384   1.7624   1.8012
     1.8124   1.8318   1.8602   1.8990   1.9346   1.9434   1.9583   1.9938
     2.0140   2.0618   2.1071   2.2397   2.2817   2.4341   2.4687   2.6940

          k =-0.3750 0.3750 0.1250 (132616 PWs)   bands (ev):

   -18.5043 -18.4953 -18.4355 -18.3699 -18.3641 -18.3551 -18.3505 -18.3469
   -18.3462 -18.3418 -18.3383 -18.3210 -18.3158 -18.3142 -18.3072 -18.3064
   -18.3027 -18.3021 -18.2977 -18.2956 -18.2892 -18.2701 -18.2617 -18.2582
   -18.2520 -18.2454 -18.2332 -18.2315 -18.2247 -18.2244 -18.2174 -18.2166
   -18.2124 -18.2116 -18.2110 -18.2082 -18.2081 -18.2024 -18.1994 -18.1983
   -18.1964 -18.1950 -18.1762 -17.9690 -17.9613 -17.9382 -17.9349 -17.9324
    -9.3964  -9.3198  -9.2776  -9.2240  -9.1885  -9.1406  -9.1100  -9.0278
    -8.9845  -8.9634  -8.9134  -8.9007  -8.8688  -8.8345  -8.8170  -8.8067
    -8.7799  -8.7360  -8.7101  -8.6907  -8.6696  -8.6281  -8.5849  -8.5237
    -5.2742  -5.2702  -5.2623  -5.2579  -5.2510  -5.2468  -5.2322  -5.2140
    -5.2052  -5.1471  -5.1362  -5.1294  -5.1236  -5.1221  -5.1211  -5.1175
    -5.1118  -5.1100  -5.0130  -4.9922  -4.9848  -4.9776  -4.9673  -4.9501
    -4.2285  -4.0109  -3.9662  -3.7456  -3.6485  -3.4246  -3.4036  -3.1560
    -0.6681  -0.6097  -0.5527  -0.4802  -0.3629  -0.2568  -0.1602  -0.1428
    -0.0650  -0.0480   0.0209   0.1159   0.3375   0.4102   0.4566   0.4928
     0.5271   0.5662   0.5912   0.6100   0.6300   0.6614   0.7186   0.7508
     0.7951   0.8579   0.9155   0.9815   1.0094   1.0516   1.0850   1.1295
     1.1509   1.1762   1.2184   1.2582   1.2721   1.2922   1.3219   1.3561
     1.3919   1.4166   1.4820   1.5193   1.5305   1.5721   1.6006   1.6163
     1.6304   1.6430   1.6792   1.6889   1.7165   1.7440   1.7573   1.7724
     1.8103   1.8369   1.8585   1.8773   1.8914   1.9364   1.9781   2.0055
     2.0281   2.0720   2.1085   2.2252   2.2879   2.3995   2.5027   2.6911

          k =-0.3750-0.3750 0.3750 (132612 PWs)   bands (ev):

   -18.5043 -18.4953 -18.4355 -18.3699 -18.3641 -18.3551 -18.3505 -18.3469
   -18.3462 -18.3418 -18.3383 -18.3210 -18.3158 -18.3142 -18.3072 -18.3064
   -18.3027 -18.3021 -18.2977 -18.2956 -18.2892 -18.2701 -18.2617 -18.2582
   -18.2520 -18.2454 -18.2332 -18.2315 -18.2247 -18.2244 -18.2174 -18.2166
   -18.2124 -18.2116 -18.2110 -18.2082 -18.2081 -18.2024 -18.1994 -18.1983
   -18.1964 -18.1950 -18.1762 -17.9690 -17.9613 -17.9382 -17.9349 -17.9324
    -9.3860  -9.3053  -9.2812  -9.2370  -9.1829  -9.1439  -9.1257  -9.0717
    -8.9744  -8.9549  -8.9139  -8.8974  -8.8592  -8.8273  -8.8104  -8.7916
    -8.7743  -8.7315  -8.7143  -8.6935  -8.6745  -8.6241  -8.5942  -8.5274
    -5.2741  -5.2694  -5.2632  -5.2575  -5.2516  -5.2470  -5.2323  -5.2138
    -5.2051  -5.1472  -5.1349  -5.1303  -5.1241  -5.1226  -5.1203  -5.1184
    -5.1109  -5.1098  -5.0130  -4.9918  -4.9844  -4.9777  -4.9675  -4.9501
    -4.1104  -3.9348  -3.8433  -3.8087  -3.6262  -3.5940  -3.5499  -3.3452
    -0.4008  -0.3808  -0.3205  -0.2886  -0.2457  -0.2047  -0.1345  -0.0840
    -0.0218  -0.0016   0.0248   0.2220   0.3031   0.3506   0.4107   0.4653
     0.4835   0.5052   0.5164   0.5447   0.5688   0.6273   0.6552   0.6956
     0.8418   0.8832   0.9268   0.9521   0.9837   1.0277   1.0445   1.0753
     1.0874   1.1383   1.1599   1.1876   1.2009   1.2183   1.2459   1.3178
     1.3568   1.4106   1.4463   1.4833   1.5300   1.5778   1.6128   1.6349
     1.6428   1.6883   1.6925   1.7246   1.7525   1.7683   1.7904   1.8067
     1.8351   1.8493   1.8683   1.8963   1.9104   1.9249   1.9424   1.9673
     1.9813   2.0131   2.0286   2.0863   2.1231   2.1782   2.2761   2.3968

          k =-0.3750 0.3750-0.3750 (132612 PWs)   bands (ev):

   -18.5043 -18.4953 -18.4355 -18.3699 -18.3641 -18.3551 -18.3505 -18.3469
   -18.3462 -18.3418 -18.3383 -18.3210 -18.3158 -18.3142 -18.3072 -18.3064
   -18.3027 -18.3021 -18.2977 -18.2956 -18.2892 -18.2701 -18.2617 -18.2582
   -18.2520 -18.2454 -18.2332 -18.2315 -18.2247 -18.2244 -18.2174 -18.2166
   -18.2124 -18.2116 -18.2110 -18.2082 -18.2081 -18.2024 -18.1994 -18.1983
   -18.1964 -18.1950 -18.1762 -17.9690 -17.9613 -17.9382 -17.9349 -17.9324
    -9.3858  -9.3083  -9.2764  -9.2368  -9.1869  -9.1470  -9.1203  -9.0701
    -8.9791  -8.9522  -8.9131  -8.9003  -8.8581  -8.8286  -8.8072  -8.7915
    -8.7707  -8.7408  -8.7080  -8.6944  -8.6757  -8.6233  -8.5944  -8.5275
    -5.2741  -5.2693  -5.2632  -5.2576  -5.2517  -5.2470  -5.2323  -5.2139
    -5.2050  -5.1472  -5.1349  -5.1304  -5.1241  -5.1225  -5.1203  -5.1184
    -5.1108  -5.1100  -5.0129  -4.9918  -4.9843  -4.9778  -4.9675  -4.9502
    -4.1078  -3.9424  -3.8627  -3.7657  -3.6625  -3.5957  -3.5252  -3.3506
    -0.4170  -0.3590  -0.3380  -0.3029  -0.2425  -0.1844  -0.1283  -0.0601
    -0.0474  -0.0039   0.0558   0.2017   0.2977   0.3494   0.3956   0.4550
     0.4755   0.5025   0.5236   0.5597   0.5865   0.6216   0.6513   0.6867
     0.8683   0.8910   0.9228   0.9398   0.9930   1.0172   1.0418   1.0600
     1.0930   1.1263   1.1381   1.1955   1.2058   1.2182   1.2694   1.3198
     1.3459   1.4321   1.4555   1.4946   1.5212   1.5491   1.6131   1.6348
     1.6815   1.6967   1.7098   1.7237   1.7452   1.7502   1.7751   1.7989
     1.8269   1.8496   1.8521   1.8872   1.8986   1.9176   1.9422   1.9701
     1.9978   2.0225   2.0609   2.0816   2.1314   2.1719   2.2759   2.3832

          k = 0.3750-0.3750-0.3750 (132612 PWs)   bands (ev):

   -18.5043 -18.4953 -18.4355 -18.3699 -18.3641 -18.3551 -18.3505 -18.3469
   -18.3462 -18.3418 -18.3383 -18.3210 -18.3158 -18.3142 -18.3072 -18.3064
   -18.3027 -18.3021 -18.2977 -18.2956 -18.2892 -18.2701 -18.2617 -18.2582
   -18.2520 -18.2454 -18.2332 -18.2315 -18.2247 -18.2244 -18.2174 -18.2166
   -18.2124 -18.2116 -18.2110 -18.2082 -18.2081 -18.2024 -18.1994 -18.1983
   -18.1964 -18.1950 -18.1762 -17.9690 -17.9613 -17.9382 -17.9349 -17.9324
    -9.3851  -9.3092  -9.2794  -9.2331  -9.1896  -9.1429  -9.1186  -9.0745
    -8.9787  -8.9540  -8.9145  -8.8939  -8.8587  -8.8281  -8.8123  -8.7919
    -8.7723  -8.7314  -8.7146  -8.6936  -8.6743  -8.6237  -8.5949  -8.5272
    -5.2741  -5.2693  -5.2632  -5.2576  -5.2516  -5.2470  -5.2322  -5.2139
    -5.2052  -5.1473  -5.1349  -5.1304  -5.1241  -5.1224  -5.1204  -5.1181
    -5.1112  -5.1098  -5.0129  -4.9919  -4.9844  -4.9778  -4.9674  -4.9501
    -4.1078  -3.9428  -3.8497  -3.7900  -3.6499  -3.5913  -3.5292  -3.3517
    -0.4258  -0.3898  -0.3093  -0.2770  -0.2294  -0.1771  -0.1331  -0.0982
    -0.0412   0.0170   0.0294   0.2012   0.2931   0.3287   0.4017   0.4483
     0.4849   0.5244   0.5507   0.5604   0.5800   0.6175   0.6385   0.6968
     0.8503   0.8750   0.9344   0.9659   0.9862   1.0174   1.0425   1.0676
     1.0846   1.1218   1.1281   1.1874   1.2226   1.2386   1.2509   1.3078
     1.3598   1.3981   1.4510   1.4910   1.5346   1.5927   1.6061   1.6393
     1.6572   1.6847   1.7026   1.7237   1.7508   1.7753   1.7954   1.8071
     1.8180   1.8362   1.8521   1.8772   1.9045   1.9210   1.9477   1.9668
     1.9797   2.0198   2.0549   2.0995   2.1141   2.1834   2.2676   2.3925

     highest occupied level (ev):     3.1989

!    total energy              =   -2256.30355603 Ry
     estimated scf accuracy    <          6.4E-11 Ry

     The total energy is the sum of the following terms:
     one-electron contribution =    -988.53493153 Ry
     hartree contribution      =     622.32746932 Ry
     xc contribution           =    -647.49775111 Ry
     ewald contribution        =   -1242.59834271 Ry

     convergence has been achieved in  15 iterations

     Forces acting on atoms (cartesian axes, Ry/au):

     atom    1 type  1   force =    -0.00217825   -0.00883135   -0.01004656
     atom    2 type  2   force =     0.01695167   -0.01053034    0.00310884
     atom    3 type  3   force =     0.00578392    0.00303425   -0.00037399
     atom    4 type  3   force =    -0.00354647    0.00297745   -0.02266709
     atom    5 type  3   force =     0.00095077    0.00332717    0.00177313
     atom    6 type  1   force =     0.00042288   -0.00109268   -0.00264611
     atom    7 type  2   force =    -0.00462838   -0.02508472   -0.00022244
     atom    8 type  3   force =     0.02223544   -0.00119378   -0.00099058
     atom    9 type  3   force =    -0.00096162   -0.00250014    0.02240681
     atom   10 type  3   force =    -0.00534087    0.04252510    0.00260172
     atom   11 type  1   force =    -0.00303911    0.00249025    0.00054727
     atom   12 type  2   force =     0.00696622    0.00413257   -0.00175283
     atom   13 type  3   force =     0.01025245   -0.00097762    0.00234088
     atom   14 type  3   force =     0.00381328   -0.00182971   -0.01100456
     atom   15 type  3   force =     0.00038351   -0.01067151   -0.00597027
     atom   16 type  1   force =     0.00070984    0.00118207   -0.00050267
     atom   17 type  2   force =    -0.00227876    0.01500072    0.00018996
     atom   18 type  3   force =     0.00244274    0.00990741    0.00944566
     atom   19 type  3   force =     0.00671298    0.00095236    0.00398505
     atom   20 type  3   force =    -0.00079475   -0.01427004    0.00478077
     atom   21 type  1   force =     0.00163110   -0.00112315    0.00050106
     atom   22 type  2   force =    -0.00926338   -0.00748971   -0.00620625
     atom   23 type  3   force =    -0.01125821    0.00488288    0.00000143
     atom   24 type  3   force =    -0.00149677    0.00010671   -0.01023929
     atom   25 type  3   force =    -0.00011549   -0.00146426    0.00445428
     atom   26 type  1   force =     0.00133307    0.00054752    0.00085645
     atom   27 type  2   force =     0.00125489   -0.01343384    0.00144661
     atom   28 type  3   force =    -0.00702723    0.00588860   -0.00110124
     atom   29 type  3   force =     0.00134643    0.00533784    0.00705613
     atom   30 type  3   force =     0.00659278   -0.00893471    0.00023978
     atom   31 type  1   force =     0.00661420    0.00576293   -0.00007552
     atom   32 type  2   force =     0.00021332    0.00810322    0.01325775
     atom   33 type  3   force =    -0.01947154   -0.00010254    0.00266900
     atom   34 type  3   force =    -0.00555270   -0.00480710    0.00277894
     atom   35 type  3   force =    -0.01129287   -0.00156236    0.01453362
     atom   36 type  1   force =     0.00867516   -0.00030872   -0.00768872
     atom   37 type  2   force =    -0.00748447    0.00967833   -0.00838060
     atom   38 type  3   force =    -0.00434829   -0.00224460    0.00115023
     atom   39 type  3   force =     0.00030195   -0.00396448   -0.00764226
     atom   40 type  3   force =    -0.00550941   -0.00342003   -0.00261440

     Total force =     0.091887     Total SCF correction =     0.000035


     Computing stress (Cartesian axis) and pressure

          total   stress  (Ry/bohr**3)                   (kbar)     P=       -7.64
  -0.00004824   0.00000199  -0.00000551           -7.10        0.29       -0.81
   0.00000199  -0.00005871   0.00000585            0.29       -8.64        0.86
  -0.00000551   0.00000585  -0.00004884           -0.81        0.86       -7.18

 
     init_run     :     20.10s CPU     17.21s WALL (       1 calls)
     electrons    :    201.64s CPU    213.97s WALL (       1 calls)
     forces       :      8.80s CPU      3.98s WALL (       1 calls)
     stress       :     31.27s CPU     31.22s WALL (       1 calls)

     Called by init_run:
     wfcinit      :     12.26s CPU     14.15s WALL (       1 calls)
                                       14.15s GPU  (       1 calls)
     potinit      :      4.46s CPU      1.39s WALL (       1 calls)
     hinit0       :      2.81s CPU      0.99s WALL (       1 calls)

     Called by electrons:
     c_bands      :    120.96s CPU    171.61s WALL (      16 calls)
     sum_band     :     21.87s CPU     21.03s WALL (      16 calls)
                                       21.03s GPU  (      16 calls)
     v_of_rho     :     54.45s CPU     16.59s WALL (      16 calls)
     mix_rho      :      6.38s CPU      4.98s WALL (      16 calls)

     Called by c_bands:
     init_us_2    :      2.47s CPU      3.20s WALL (     280 calls)
                                        3.20s GPU  (     280 calls)
     cegterg      :     79.76s CPU    127.76s WALL (     128 calls)

     Called by *egterg:
     cdiaghg      :     13.88s CPU     26.19s WALL (     647 calls)
                                       26.15s GPU  (     647 calls)
     h_psi        :     53.53s CPU     73.09s WALL (     663 calls)
                                       72.65s GPU  (     663 calls)
     g_psi        :      0.00s CPU      0.35s WALL (     527 calls)
                                        0.35s GPU  (     527 calls)

     Called by h_psi:
     h_psi:calbec :      0.30s CPU      9.92s WALL (     663 calls)
                                        9.91s GPU  (     663 calls)
     vloc_psi     :     38.82s CPU     53.19s WALL (     663 calls)
                                       52.29s GPU  (     663 calls)
     add_vuspsi   :      0.34s CPU      9.89s WALL (     663 calls)
                                        9.88s GPU  (     663 calls)

     General routines
     calbec       :      0.30s CPU      0.40s WALL (     703 calls)
     fft          :     25.78s CPU      6.57s WALL (     185 calls)
                                        0.00s GPU  (       6 calls)
     ffts         :      2.64s CPU      0.68s WALL (      16 calls)
     fftw         :      0.67s CPU     61.76s WALL (   10356 calls)
                                       46.19s GPU  (   10356 calls)
 
     Parallel routines
 
     PWSCF        :   4m22.47s CPU   4m27.12s WALL

 
   This run was terminated on:  19:51:33  22Apr2021            

=------------------------------------------------------------------------------=
   JOB DONE.
=------------------------------------------------------------------------------=
