
     Program PWSCF v.6.7MaX starts on 22Apr2021 at 21: 3: 2 

     This program is part of the open-source Quantum ESPRESSO suite
     for quantum simulation of materials; please cite
         "P. Giannozzi et al., J. Phys.:Condens. Matter 21 395502 (2009);
         "P. Giannozzi et al., J. Phys.:Condens. Matter 29 465901 (2017);
         "P. Giannozzi et al., J. Chem. Phys. 152 154105 (2020);
          URL http://www.quantum-espresso.org", 
     in publications or presentations arising from this work. More details at
     http://www.quantum-espresso.org/quote

     Parallel version (MPI & OpenMP), running on      16 processor cores
     Number of MPI processes:                 4
     Threads/MPI process:                     4

     MPI processes distributed on     1 nodes
     K-points division:     npool     =       4
     Reading input from ESP_66.pwi
Warning: card &CELL ignored
Warning: card / ignored

     Current dimensions of program PWSCF are:
     Max number of different atomic species (ntypx) = 10
     Max number of k-points (npk) =  40000
     Max angular momentum in pseudopotentials (lmaxx) =  3
     Message from routine read_pp_mesh:
     mesh size missing, using the one in header
     Message from routine read_pp_mesh:
     mesh size missing, using the one in header
     Message from routine read_pp_mesh:
     mesh size missing, using the one in header

     Subspace diagonalization in iterative solution of the eigenvalue problem:
     a serial algorithm will be used

 
     G-vector sticks info
     --------------------
     sticks:   dense  smooth     PW     G-vecs:    dense   smooth      PW
     Sum       12589   12589   3289              1061107  1061107  140905
 
     Using Slab Decomposition
 


     bravais-lattice index     =            0
     lattice parameter (alat)  =      23.7585  a.u.
     unit-cell volume          =   13410.8736 (a.u.)^3
     number of atoms/cell      =           40
     number of atomic types    =            3
     number of electrons       =       352.00
     number of Kohn-Sham states=          176
     kinetic-energy cutoff     =      70.0000  Ry
     charge density cutoff     =     280.0000  Ry
     scf convergence threshold =      1.0E-10
     mixing beta               =       0.7000
     number of iterations used =            8  plain     mixing
     Exchange-correlation= PBESOL
                           (   1   4  10   8   0   0   0)

     GPU acceleration is ACTIVE.


     celldm(1)=  23.758500  celldm(2)=   0.000000  celldm(3)=   0.000000
     celldm(4)=   0.000000  celldm(5)=   0.000000  celldm(6)=   0.000000

     crystal axes: (cart. coord. in units of alat)
               a(1) = (   1.000000   0.000000   0.000000 )  
               a(2) = (   0.000000   1.000000   0.000000 )  
               a(3) = (   0.000000   0.000000   1.000000 )  

     reciprocal axes: (cart. coord. in units 2 pi/alat)
               b(1) = (  1.000000  0.000000  0.000000 )  
               b(2) = (  0.000000  1.000000  0.000000 )  
               b(3) = (  0.000000  0.000000  1.000000 )  


     PseudoPot. # 1 for Cs read from file:
     /m100/home/userexternal/lmonacel/espresso/pseudo/Cs-nc-pbesol.upf
     MD5 check sum: 9d2f2206a14dc5b3b3f3fbfae186bed4
     Pseudo is Norm-conserving + core correction, Zval =  9.0
     Generated using ONCVPSP code by D. R. Hamann
     Using radial grid of 2384 points,  8 beta functions with: 
                l(1) =   0
                l(2) =   0
                l(3) =   1
                l(4) =   1
                l(5) =   2
                l(6) =   2
                l(7) =   3
                l(8) =   3

     PseudoPot. # 2 for Sn read from file:
     /m100/home/userexternal/lmonacel/espresso/pseudo/Sn-nc-pbesol.upf
     MD5 check sum: c2995d571af40102bfea7461443d92cf
     Pseudo is Norm-conserving + core correction, Zval = 14.0
     Generated using ONCVPSP code by D. R. Hamann
     Using radial grid of 1628 points,  6 beta functions with: 
                l(1) =   0
                l(2) =   0
                l(3) =   1
                l(4) =   1
                l(5) =   2
                l(6) =   2

     PseudoPot. # 3 for I  read from file:
     /m100/home/userexternal/lmonacel/espresso/pseudo/I-nc-pbesol.upf
     MD5 check sum: 80ed5ceb2eb9c553cfb6760a299d9c5b
     Pseudo is Norm-conserving + core correction, Zval =  7.0
     Generated using ONCVPSP code by D. R. Hamann
     Using radial grid of 1182 points,  6 beta functions with: 
                l(1) =   0
                l(2) =   0
                l(3) =   1
                l(4) =   1
                l(5) =   2
                l(6) =   2

     atomic species   valence    mass     pseudopotential
        Cs             9.00   132.90545     Cs( 1.00)
        Sn            14.00   118.71000     Sn( 1.00)
        I              7.00   126.90447     I ( 1.00)

     No symmetry found



   Cartesian axes

     site n.     atom                  positions (alat units)
         1           Cs  tau(   1) = (   0.2373095   0.2343413   0.3040917  )
         2           Sn  tau(   2) = (  -0.0173241  -0.0156796  -0.0026311  )
         3           I   tau(   3) = (   0.2322509  -0.0129296  -0.0050310  )
         4           I   tau(   4) = (  -0.0000443  -0.0165977   0.2476088  )
         5           I   tau(   5) = (  -0.0012366   0.2482109   0.0069043  )
         6           Cs  tau(   6) = (   0.2773356   0.2310781   0.7753228  )
         7           Sn  tau(   7) = (   0.0016956   0.0018082   0.5116130  )
         8           I   tau(   8) = (   0.2475418   0.0041184   0.5144807  )
         9           I   tau(   9) = (   0.0153267   0.0010909   0.7460361  )
        10           I   tau(  10) = (   0.0083245   0.2447636   0.4908389  )
        11           Cs  tau(  11) = (   0.2309658   0.7440309   0.2544236  )
        12           Sn  tau(  12) = (   0.0082678   0.4946990  -0.0014191  )
        13           I   tau(  13) = (   0.2545467   0.5045309   0.0041841  )
        14           I   tau(  14) = (  -0.0239290   0.5283990   0.2378766  )
        15           I   tau(  15) = (  -0.0265928   0.7427151  -0.0292559  )
        16           Cs  tau(  16) = (   0.2570201   0.7614540   0.7466650  )
        17           Sn  tau(  17) = (  -0.0096584   0.5055503   0.4988358  )
        18           I   tau(  18) = (   0.2450081   0.4857063   0.5081975  )
        19           I   tau(  19) = (   0.0160946   0.4853249   0.7464560  )
        20           I   tau(  20) = (  -0.0004282   0.7412670   0.5062644  )
        21           Cs  tau(  21) = (   0.7259909   0.2419569   0.2535431  )
        22           Sn  tau(  22) = (   0.4835092   0.0079415  -0.0000006  )
        23           I   tau(  23) = (   0.7360490  -0.0119940  -0.0263466  )
        24           I   tau(  24) = (   0.5293573   0.0524684   0.2439407  )
        25           I   tau(  25) = (   0.4980545   0.2522024   0.0106246  )
        26           Cs  tau(  26) = (   0.7536177   0.2671497   0.7811838  )
        27           Sn  tau(  27) = (   0.5125448  -0.0015108   0.5112915  )
        28           I   tau(  28) = (   0.7444182   0.0053511   0.4911503  )
        29           I   tau(  29) = (   0.5407631   0.0017307   0.7374338  )
        30           I   tau(  30) = (   0.4750790   0.2582708   0.5111201  )
        31           Cs  tau(  31) = (   0.7540386   0.7504937   0.2375796  )
        32           Sn  tau(  32) = (   0.5040409   0.5122515  -0.0006817  )
        33           I   tau(  33) = (   0.7483399   0.5086256  -0.0209195  )
        34           I   tau(  34) = (   0.5116485   0.4964404   0.2638766  )
        35           I   tau(  35) = (   0.4758817   0.7535612  -0.0059048  )
        36           Cs  tau(  36) = (   0.7655692   0.7428539   0.6820630  )
        37           Sn  tau(  37) = (   0.5029819   0.5010773   0.4974991  )
        38           I   tau(  38) = (   0.7472213   0.4881451   0.5205917  )
        39           I   tau(  39) = (   0.5195704   0.5024606   0.7529876  )
        40           I   tau(  40) = (   0.5178619   0.7582983   0.4967934  )

     number of k points=    32
                       cart. coord. in units 2pi/alat
        k(    1) = (   0.1250000   0.1250000   0.1250000), wk =   0.0625000
        k(    2) = (   0.1250000   0.1250000   0.3750000), wk =   0.0625000
        k(    3) = (   0.1250000   0.3750000   0.3750000), wk =   0.0625000
        k(    4) = (   0.3750000   0.3750000   0.3750000), wk =   0.0625000
        k(    5) = (  -0.1250000  -0.1250000   0.1250000), wk =   0.0625000
        k(    6) = (  -0.1250000   0.1250000  -0.1250000), wk =   0.0625000
        k(    7) = (   0.1250000  -0.1250000  -0.1250000), wk =   0.0625000
        k(    8) = (  -0.1250000  -0.1250000   0.3750000), wk =   0.0625000
        k(    9) = (  -0.1250000   0.1250000  -0.3750000), wk =   0.0625000
        k(   10) = (   0.1250000  -0.1250000  -0.3750000), wk =   0.0625000
        k(   11) = (   0.3750000  -0.1250000   0.1250000), wk =   0.0625000
        k(   12) = (  -0.3750000  -0.1250000  -0.1250000), wk =   0.0625000
        k(   13) = (   0.3750000   0.1250000  -0.1250000), wk =   0.0625000
        k(   14) = (  -0.3750000   0.1250000   0.1250000), wk =   0.0625000
        k(   15) = (  -0.1250000   0.3750000   0.1250000), wk =   0.0625000
        k(   16) = (  -0.1250000  -0.3750000  -0.1250000), wk =   0.0625000
        k(   17) = (   0.1250000   0.3750000  -0.1250000), wk =   0.0625000
        k(   18) = (   0.1250000  -0.3750000   0.1250000), wk =   0.0625000
        k(   19) = (  -0.1250000  -0.3750000   0.3750000), wk =   0.0625000
        k(   20) = (  -0.1250000   0.3750000  -0.3750000), wk =   0.0625000
        k(   21) = (   0.1250000  -0.3750000  -0.3750000), wk =   0.0625000
        k(   22) = (   0.3750000   0.1250000  -0.3750000), wk =   0.0625000
        k(   23) = (  -0.3750000  -0.1250000  -0.3750000), wk =   0.0625000
        k(   24) = (   0.3750000  -0.1250000   0.3750000), wk =   0.0625000
        k(   25) = (  -0.3750000   0.1250000   0.3750000), wk =   0.0625000
        k(   26) = (   0.3750000  -0.3750000   0.1250000), wk =   0.0625000
        k(   27) = (  -0.3750000  -0.3750000  -0.1250000), wk =   0.0625000
        k(   28) = (   0.3750000   0.3750000  -0.1250000), wk =   0.0625000
        k(   29) = (  -0.3750000   0.3750000   0.1250000), wk =   0.0625000
        k(   30) = (  -0.3750000  -0.3750000   0.3750000), wk =   0.0625000
        k(   31) = (  -0.3750000   0.3750000  -0.3750000), wk =   0.0625000
        k(   32) = (   0.3750000  -0.3750000  -0.3750000), wk =   0.0625000

     Dense  grid:  1061107 G-vectors     FFT dimensions: ( 128, 128, 128)

     Estimated max dynamical RAM per process >       6.82 GB

     Estimated total dynamical RAM >      27.27 GB

     Initial potential from superposition of free atoms

     starting charge  351.69472, renormalised to  352.00000
     Starting wfcs are  208 randomized atomic wfcs

     total cpu time spent up to now is       18.0 secs

     Self-consistent Calculation

     iteration #  1     ecut=    70.00 Ry     beta= 0.70
     Davidson diagonalization with overlap
     ethr =  1.00E-02,  avg # of iterations =  2.0

     Threshold (ethr) on eigenvalues was too large:
     Diagonalizing with lowered threshold

     Davidson diagonalization with overlap
     ethr =  2.11E-04,  avg # of iterations =  4.0

     total cpu time spent up to now is       38.9 secs

     total energy              =   -2256.04838715 Ry
     estimated scf accuracy    <       0.64340650 Ry

     iteration #  2     ecut=    70.00 Ry     beta= 0.70
     Davidson diagonalization with overlap
     ethr =  1.83E-04,  avg # of iterations =  3.3

     total cpu time spent up to now is       51.9 secs

     total energy              =   -2256.24754649 Ry
     estimated scf accuracy    <       0.28148462 Ry

     iteration #  3     ecut=    70.00 Ry     beta= 0.70
     Davidson diagonalization with overlap
     ethr =  8.00E-05,  avg # of iterations =  2.8

     total cpu time spent up to now is       63.5 secs

     total energy              =   -2256.30129240 Ry
     estimated scf accuracy    <       0.02145027 Ry

     iteration #  4     ecut=    70.00 Ry     beta= 0.70
     Davidson diagonalization with overlap
     ethr =  6.09E-06,  avg # of iterations =  3.9

     total cpu time spent up to now is       77.0 secs

     total energy              =   -2256.30875984 Ry
     estimated scf accuracy    <       0.00549059 Ry

     iteration #  5     ecut=    70.00 Ry     beta= 0.70
     Davidson diagonalization with overlap
     ethr =  1.56E-06,  avg # of iterations =  3.0

     total cpu time spent up to now is       89.2 secs

     total energy              =   -2256.30978926 Ry
     estimated scf accuracy    <       0.00111511 Ry

     iteration #  6     ecut=    70.00 Ry     beta= 0.70
     Davidson diagonalization with overlap
     ethr =  3.17E-07,  avg # of iterations =  3.5

     total cpu time spent up to now is      101.6 secs

     total energy              =   -2256.30999482 Ry
     estimated scf accuracy    <       0.00013318 Ry

     iteration #  7     ecut=    70.00 Ry     beta= 0.70
     Davidson diagonalization with overlap
     ethr =  3.78E-08,  avg # of iterations =  5.2

     total cpu time spent up to now is      115.8 secs

     total energy              =   -2256.31004696 Ry
     estimated scf accuracy    <       0.00002372 Ry

     iteration #  8     ecut=    70.00 Ry     beta= 0.70
     Davidson diagonalization with overlap
     ethr =  6.74E-09,  avg # of iterations =  4.0

     total cpu time spent up to now is      129.2 secs

     total energy              =   -2256.31005532 Ry
     estimated scf accuracy    <       0.00000403 Ry

     iteration #  9     ecut=    70.00 Ry     beta= 0.70
     Davidson diagonalization with overlap
     ethr =  1.14E-09,  avg # of iterations =  3.6

     total cpu time spent up to now is      142.6 secs

     total energy              =   -2256.31005670 Ry
     estimated scf accuracy    <       0.00000063 Ry

     iteration # 10     ecut=    70.00 Ry     beta= 0.70
     Davidson diagonalization with overlap
     ethr =  1.79E-10,  avg # of iterations =  5.0

     total cpu time spent up to now is      158.1 secs

     total energy              =   -2256.31005698 Ry
     estimated scf accuracy    <       0.00000024 Ry

     iteration # 11     ecut=    70.00 Ry     beta= 0.70
     Davidson diagonalization with overlap
     ethr =  6.85E-11,  avg # of iterations =  3.9

     total cpu time spent up to now is      171.3 secs

     total energy              =   -2256.31005705 Ry
     estimated scf accuracy    <       0.00000002 Ry

     iteration # 12     ecut=    70.00 Ry     beta= 0.70
     Davidson diagonalization with overlap
     ethr =  6.96E-12,  avg # of iterations =  5.3

     total cpu time spent up to now is      187.3 secs

     total energy              =   -2256.31005707 Ry
     estimated scf accuracy    <          9.3E-09 Ry

     iteration # 13     ecut=    70.00 Ry     beta= 0.70
     Davidson diagonalization with overlap
     ethr =  2.64E-12,  avg # of iterations =  3.6

     total cpu time spent up to now is      200.5 secs

     total energy              =   -2256.31005707 Ry
     estimated scf accuracy    <          9.7E-10 Ry

     iteration # 14     ecut=    70.00 Ry     beta= 0.70
     Davidson diagonalization with overlap
     ethr =  2.76E-13,  avg # of iterations =  5.2

     total cpu time spent up to now is      216.5 secs

     total energy              =   -2256.31005707 Ry
     estimated scf accuracy    <          1.6E-10 Ry

     iteration # 15     ecut=    70.00 Ry     beta= 0.70
     Davidson diagonalization with overlap
     ethr =  1.00E-13,  avg # of iterations =  3.5

     total cpu time spent up to now is      228.9 secs

     End of self-consistent calculation

          k = 0.1250 0.1250 0.1250 (132670 PWs)   bands (ev):

   -18.6087 -18.4911 -18.4807 -18.3932 -18.3469 -18.3424 -18.3349 -18.3258
   -18.3171 -18.2936 -18.2733 -18.2706 -18.2619 -18.2615 -18.2612 -18.2527
   -18.2492 -18.2488 -18.2450 -18.2423 -18.2377 -18.2372 -18.2341 -18.2172
   -18.2080 -18.2032 -18.2004 -18.1994 -18.1920 -18.1892 -18.1882 -18.1794
   -18.1759 -18.1740 -18.1731 -18.1714 -18.1653 -18.1650 -18.1582 -18.1503
   -18.1491 -18.1452 -18.1427 -18.1410 -18.1357 -18.1311 -18.1303 -18.1250
    -9.4697  -9.3585  -9.2732  -9.1998  -9.1523  -9.0584  -9.0362  -9.0177
    -8.9941  -8.9483  -8.9420  -8.9138  -8.8597  -8.8447  -8.8304  -8.8138
    -8.7921  -8.7456  -8.7203  -8.6700  -8.6478  -8.6206  -8.5710  -8.5496
    -5.3665  -5.3578  -5.3505  -5.2533  -5.2524  -5.2444  -5.2430  -5.2368
    -5.2293  -5.1680  -5.1537  -5.1437  -5.0720  -5.0651  -5.0612  -5.0583
    -5.0511  -5.0453  -5.0403  -5.0356  -5.0293  -5.0240  -5.0214  -5.0133
    -4.4666  -3.9644  -3.9182  -3.8903  -3.3885  -3.3733  -3.3026  -2.7135
    -0.7513  -0.7244  -0.6781  -0.6370  -0.6097  -0.5455  -0.5071  -0.4759
    -0.4090  -0.3702  -0.3192  -0.2592   0.4019   0.4592   0.5109   0.6290
     0.6562   0.6791   0.7455   0.7745   0.8369   0.9217   0.9405   0.9512
     1.0261   1.0501   1.0820   1.0952   1.1295   1.1692   1.1801   1.1981
     1.2361   1.2477   1.2752   1.3181   1.3236   1.3361   1.3642   1.3848
     1.3989   1.4231   1.4474   1.4670   1.4976   1.5126   1.5290   1.5491
     1.5756   1.5936   1.6290   1.6368   1.6619   1.6875   1.7050   1.7264
     1.7678   1.8291   1.8528   1.9822   2.0168   2.0674   2.0945   2.1283
     2.1383   2.1800   2.2226   2.3810   2.6333   2.7052   2.8208   3.1718

          k = 0.1250 0.1250 0.3750 (132608 PWs)   bands (ev):

   -18.6087 -18.4911 -18.4807 -18.3932 -18.3469 -18.3424 -18.3349 -18.3258
   -18.3171 -18.2936 -18.2733 -18.2706 -18.2619 -18.2615 -18.2612 -18.2527
   -18.2492 -18.2488 -18.2450 -18.2423 -18.2377 -18.2372 -18.2341 -18.2172
   -18.2080 -18.2032 -18.2004 -18.1994 -18.1920 -18.1892 -18.1882 -18.1794
   -18.1759 -18.1740 -18.1731 -18.1714 -18.1653 -18.1650 -18.1582 -18.1503
   -18.1491 -18.1452 -18.1427 -18.1410 -18.1357 -18.1311 -18.1303 -18.1250
    -9.4610  -9.3542  -9.2715  -9.2078  -9.1672  -9.0764  -9.0449  -9.0123
    -8.9948  -8.9590  -8.9368  -8.8945  -8.8713  -8.8446  -8.8260  -8.8029
    -8.7610  -8.7374  -8.7068  -8.6824  -8.6627  -8.6243  -8.5732  -8.5568
    -5.3664  -5.3576  -5.3504  -5.2531  -5.2498  -5.2460  -5.2434  -5.2374
    -5.2295  -5.1680  -5.1536  -5.1435  -5.0712  -5.0656  -5.0609  -5.0580
    -5.0522  -5.0457  -5.0400  -5.0358  -5.0295  -5.0240  -5.0216  -5.0135
    -4.3459  -4.1063  -3.7997  -3.7871  -3.5520  -3.5375  -3.1995  -2.9302
    -0.7246  -0.6973  -0.6455  -0.6154  -0.5626  -0.4853  -0.4470  -0.3570
    -0.1127  -0.0855  -0.0255   0.0433   0.4173   0.4467   0.4718   0.5364
     0.5707   0.6176   0.6351   0.6496   0.6907   0.7497   0.7704   0.8205
     0.8805   0.9285   1.0022   1.0303   1.0743   1.1234   1.1550   1.1724
     1.1992   1.2252   1.2925   1.3060   1.3232   1.3528   1.3679   1.3805
     1.4215   1.4404   1.4629   1.4844   1.4971   1.5251   1.5589   1.5658
     1.5945   1.6362   1.6478   1.6594   1.7117   1.7253   1.7452   1.7706
     1.7916   1.8185   1.8591   1.9168   1.9675   1.9994   2.0083   2.0698
     2.0997   2.1572   2.2341   2.3249   2.4286   2.5172   2.7820   2.9275

          k = 0.1250 0.3750 0.3750 (132616 PWs)   bands (ev):

   -18.6087 -18.4911 -18.4807 -18.3932 -18.3469 -18.3424 -18.3349 -18.3258
   -18.3171 -18.2936 -18.2733 -18.2706 -18.2619 -18.2615 -18.2612 -18.2527
   -18.2492 -18.2488 -18.2450 -18.2423 -18.2377 -18.2372 -18.2341 -18.2172
   -18.2080 -18.2032 -18.2004 -18.1994 -18.1920 -18.1892 -18.1882 -18.1794
   -18.1759 -18.1740 -18.1731 -18.1714 -18.1653 -18.1650 -18.1582 -18.1503
   -18.1491 -18.1452 -18.1427 -18.1410 -18.1357 -18.1311 -18.1303 -18.1250
    -9.4485  -9.3594  -9.2776  -9.2019  -9.1620  -9.1151  -9.0364  -9.0191
    -8.9977  -8.9612  -8.9378  -8.8944  -8.8537  -8.8378  -8.8182  -8.7974
    -8.7609  -8.7291  -8.6993  -8.6892  -8.6627  -8.6268  -8.5851  -8.5581
    -5.3664  -5.3577  -5.3504  -5.2530  -5.2498  -5.2460  -5.2433  -5.2374
    -5.2295  -5.1679  -5.1536  -5.1436  -5.0708  -5.0652  -5.0608  -5.0575
    -5.0528  -5.0481  -5.0392  -5.0357  -5.0290  -5.0240  -5.0215  -5.0136
    -4.2195  -4.0087  -3.9402  -3.7298  -3.6613  -3.4557  -3.3502  -3.1444
    -0.7001  -0.6003  -0.5878  -0.5218  -0.3226  -0.2698  -0.1911  -0.1223
    -0.0322  -0.0231   0.0841   0.1288   0.3265   0.4115   0.4581   0.4853
     0.5278   0.5539   0.5734   0.5924   0.6492   0.6728   0.7163   0.7408
     0.8006   0.8804   0.9209   0.9625   0.9963   1.0275   1.0780   1.1019
     1.1280   1.1823   1.2262   1.2572   1.2905   1.3181   1.3251   1.3584
     1.4043   1.4236   1.4505   1.4966   1.5220   1.5498   1.5914   1.6239
     1.6419   1.6601   1.6812   1.7072   1.7375   1.7636   1.7805   1.7967
     1.8168   1.8392   1.8737   1.9069   1.9333   1.9626   1.9844   2.0092
     2.0291   2.0723   2.0923   2.1483   2.3420   2.4139   2.5485   2.6594

          k = 0.3750 0.3750 0.3750 (132612 PWs)   bands (ev):

   -18.6087 -18.4911 -18.4807 -18.3932 -18.3469 -18.3424 -18.3349 -18.3258
   -18.3171 -18.2936 -18.2733 -18.2706 -18.2619 -18.2615 -18.2612 -18.2527
   -18.2492 -18.2488 -18.2450 -18.2423 -18.2377 -18.2372 -18.2341 -18.2172
   -18.2080 -18.2032 -18.2004 -18.1994 -18.1920 -18.1892 -18.1882 -18.1794
   -18.1759 -18.1740 -18.1731 -18.1714 -18.1653 -18.1650 -18.1583 -18.1503
   -18.1491 -18.1452 -18.1427 -18.1410 -18.1357 -18.1312 -18.1303 -18.1250
    -9.4341  -9.3656  -9.2824  -9.2091  -9.1494  -9.0993  -9.0820  -9.0325
    -9.0099  -8.9471  -8.9369  -8.8900  -8.8517  -8.8218  -8.8096  -8.7844
    -8.7608  -8.7239  -8.7036  -8.6908  -8.6601  -8.6259  -8.5941  -8.5645
    -5.3664  -5.3577  -5.3503  -5.2547  -5.2493  -5.2461  -5.2426  -5.2369
    -5.2294  -5.1679  -5.1536  -5.1436  -5.0711  -5.0650  -5.0608  -5.0575
    -5.0527  -5.0478  -5.0396  -5.0351  -5.0287  -5.0242  -5.0217  -5.0132
    -4.0900  -3.9022  -3.8441  -3.7892  -3.6626  -3.5916  -3.5268  -3.3465
    -0.4425  -0.3827  -0.3403  -0.2912  -0.2159  -0.1676  -0.1215  -0.1073
    -0.0381   0.0386   0.1053   0.2412   0.3110   0.3297   0.3930   0.4453
     0.4754   0.5096   0.5274   0.5647   0.5795   0.6092   0.6507   0.6806
     0.8314   0.8868   0.8950   0.9307   0.9793   1.0034   1.0228   1.0457
     1.0972   1.1417   1.1522   1.1934   1.2128   1.2251   1.2747   1.3082
     1.3923   1.4242   1.4591   1.5146   1.5479   1.5620   1.6015   1.6426
     1.6595   1.6810   1.7106   1.7276   1.7628   1.7783   1.7846   1.8162
     1.8286   1.8446   1.8643   1.8951   1.9212   1.9389   1.9589   2.0002
     2.0092   2.0373   2.0447   2.0784   2.0842   2.1739   2.2630   2.3522

          k =-0.1250-0.1250 0.1250 (132670 PWs)   bands (ev):

   -18.6087 -18.4911 -18.4807 -18.3932 -18.3469 -18.3424 -18.3349 -18.3258
   -18.3171 -18.2936 -18.2733 -18.2706 -18.2619 -18.2615 -18.2612 -18.2527
   -18.2492 -18.2488 -18.2450 -18.2423 -18.2377 -18.2372 -18.2341 -18.2172
   -18.2080 -18.2032 -18.2004 -18.1994 -18.1920 -18.1892 -18.1882 -18.1794
   -18.1759 -18.1740 -18.1731 -18.1714 -18.1653 -18.1650 -18.1582 -18.1503
   -18.1491 -18.1452 -18.1427 -18.1410 -18.1357 -18.1311 -18.1303 -18.1250
    -9.4699  -9.3586  -9.2702  -9.2088  -9.1418  -9.0605  -9.0393  -9.0184
    -8.9906  -8.9621  -8.9349  -8.9091  -8.8607  -8.8432  -8.8288  -8.8123
    -8.7875  -8.7575  -8.7178  -8.6703  -8.6462  -8.6198  -8.5712  -8.5498
    -5.3666  -5.3577  -5.3505  -5.2538  -5.2523  -5.2441  -5.2424  -5.2371
    -5.2295  -5.1681  -5.1537  -5.1436  -5.0718  -5.0650  -5.0612  -5.0585
    -5.0514  -5.0451  -5.0401  -5.0358  -5.0291  -5.0241  -5.0216  -5.0131
    -4.4670  -3.9561  -3.9323  -3.8842  -3.4010  -3.3377  -3.3257  -2.7145
    -0.7464  -0.7091  -0.6927  -0.6301  -0.5849  -0.5504  -0.5257  -0.4718
    -0.4205  -0.3793  -0.3119  -0.2716   0.4060   0.4550   0.5114   0.6263
     0.6545   0.6868   0.7347   0.7815   0.8354   0.9231   0.9507   0.9674
     1.0163   1.0467   1.0824   1.0936   1.1322   1.1591   1.1817   1.2107
     1.2267   1.2479   1.2737   1.3078   1.3305   1.3427   1.3593   1.3878
     1.4139   1.4279   1.4453   1.4610   1.4984   1.5147   1.5395   1.5490
     1.5758   1.5984   1.6122   1.6386   1.6564   1.6912   1.7116   1.7229
     1.7610   1.8333   1.8545   1.9634   2.0138   2.0651   2.0899   2.1179
     2.1554   2.1774   2.2260   2.3940   2.6217   2.7072   2.8269   3.1529

          k =-0.1250 0.1250-0.1250 (132670 PWs)   bands (ev):

   -18.6087 -18.4911 -18.4807 -18.3932 -18.3469 -18.3424 -18.3349 -18.3258
   -18.3171 -18.2936 -18.2733 -18.2706 -18.2619 -18.2615 -18.2612 -18.2527
   -18.2492 -18.2488 -18.2450 -18.2423 -18.2377 -18.2372 -18.2341 -18.2172
   -18.2080 -18.2032 -18.2004 -18.1994 -18.1920 -18.1892 -18.1882 -18.1794
   -18.1759 -18.1740 -18.1731 -18.1714 -18.1653 -18.1650 -18.1582 -18.1503
   -18.1491 -18.1452 -18.1427 -18.1410 -18.1357 -18.1311 -18.1303 -18.1250
    -9.4698  -9.3589  -9.2699  -9.2069  -9.1444  -9.0647  -9.0389  -9.0145
    -8.9899  -8.9570  -8.9405  -8.9038  -8.8702  -8.8391  -8.8269  -8.8133
    -8.7920  -8.7536  -8.7155  -8.6720  -8.6465  -8.6210  -8.5703  -8.5499
    -5.3666  -5.3577  -5.3505  -5.2533  -5.2524  -5.2443  -5.2431  -5.2368
    -5.2293  -5.1680  -5.1537  -5.1437  -5.0720  -5.0648  -5.0611  -5.0585
    -5.0514  -5.0449  -5.0405  -5.0357  -5.0290  -5.0238  -5.0218  -5.0132
    -4.4667  -3.9645  -3.9221  -3.8864  -3.3897  -3.3673  -3.3063  -2.7153
    -0.7587  -0.7186  -0.6630  -0.6352  -0.6000  -0.5442  -0.5129  -0.4923
    -0.4058  -0.3768  -0.3204  -0.2616   0.4053   0.4546   0.5115   0.6301
     0.6540   0.6822   0.7361   0.7863   0.8280   0.9295   0.9470   0.9742
     1.0053   1.0354   1.0579   1.0985   1.1390   1.1724   1.1903   1.2007
     1.2370   1.2517   1.2796   1.3019   1.3143   1.3337   1.3575   1.3839
     1.4083   1.4239   1.4678   1.4788   1.4942   1.5257   1.5369   1.5550
     1.5653   1.5769   1.6168   1.6521   1.6714   1.6785   1.6952   1.7253
     1.7748   1.8322   1.8532   1.9823   2.0151   2.0592   2.0808   2.1108
     2.1513   2.1875   2.2378   2.3749   2.6208   2.7324   2.8175   3.1421

          k = 0.1250-0.1250-0.1250 (132670 PWs)   bands (ev):

   -18.6087 -18.4911 -18.4807 -18.3932 -18.3469 -18.3424 -18.3349 -18.3258
   -18.3171 -18.2936 -18.2733 -18.2706 -18.2619 -18.2615 -18.2612 -18.2527
   -18.2492 -18.2488 -18.2450 -18.2423 -18.2377 -18.2372 -18.2341 -18.2172
   -18.2080 -18.2032 -18.2004 -18.1994 -18.1920 -18.1892 -18.1882 -18.1794
   -18.1759 -18.1740 -18.1731 -18.1714 -18.1653 -18.1650 -18.1582 -18.1503
   -18.1491 -18.1452 -18.1427 -18.1410 -18.1357 -18.1311 -18.1303 -18.1250
    -9.4698  -9.3592  -9.2692  -9.2082  -9.1432  -9.0679  -9.0337  -9.0088
    -9.0004  -8.9533  -8.9369  -8.9122  -8.8599  -8.8508  -8.8289  -8.8090
    -8.7878  -8.7499  -8.7233  -8.6706  -8.6463  -8.6192  -8.5708  -8.5503
    -5.3666  -5.3578  -5.3505  -5.2538  -5.2524  -5.2440  -5.2424  -5.2371
    -5.2295  -5.1680  -5.1538  -5.1436  -5.0718  -5.0652  -5.0610  -5.0583
    -5.0512  -5.0453  -5.0406  -5.0357  -5.0290  -5.0236  -5.0220  -5.0131
    -4.4672  -3.9568  -3.9275  -3.8882  -3.4055  -3.3357  -3.3221  -2.7156
    -0.7414  -0.7111  -0.6730  -0.6425  -0.6021  -0.5755  -0.5093  -0.4605
    -0.4103  -0.3659  -0.3318  -0.2700   0.4026   0.4593   0.5115   0.6302
     0.6492   0.6870   0.7403   0.7766   0.8385   0.9166   0.9475   0.9853
     1.0051   1.0414   1.0729   1.1032   1.1269   1.1609   1.1798   1.1920
     1.2259   1.2620   1.2807   1.3071   1.3223   1.3460   1.3681   1.3903
     1.4139   1.4214   1.4531   1.4642   1.4955   1.5118   1.5383   1.5607
     1.5674   1.5955   1.6127   1.6395   1.6507   1.6932   1.7111   1.7214
     1.7680   1.8371   1.8567   1.9662   2.0236   2.0625   2.0855   2.1268
     2.1336   2.1773   2.2368   2.3861   2.6091   2.7259   2.8294   3.1386

          k =-0.1250-0.1250 0.3750 (132608 PWs)   bands (ev):

   -18.6087 -18.4911 -18.4807 -18.3932 -18.3469 -18.3424 -18.3349 -18.3258
   -18.3171 -18.2936 -18.2733 -18.2706 -18.2619 -18.2615 -18.2612 -18.2527
   -18.2492 -18.2488 -18.2450 -18.2423 -18.2377 -18.2372 -18.2341 -18.2172
   -18.2080 -18.2032 -18.2004 -18.1994 -18.1920 -18.1892 -18.1882 -18.1794
   -18.1759 -18.1740 -18.1731 -18.1714 -18.1653 -18.1650 -18.1582 -18.1503
   -18.1491 -18.1452 -18.1427 -18.1410 -18.1357 -18.1311 -18.1303 -18.1250
    -9.4611  -9.3544  -9.2669  -9.2200  -9.1559  -9.0747  -9.0497  -9.0166
    -8.9937  -8.9614  -8.9326  -8.8931  -8.8709  -8.8456  -8.8252  -8.7990
    -8.7587  -8.7449  -8.7090  -8.6827  -8.6597  -8.6232  -8.5736  -8.5569
    -5.3665  -5.3576  -5.3504  -5.2532  -5.2506  -5.2448  -5.2430  -5.2378
    -5.2297  -5.1681  -5.1536  -5.1435  -5.0710  -5.0655  -5.0609  -5.0583
    -5.0525  -5.0455  -5.0399  -5.0359  -5.0294  -5.0241  -5.0218  -5.0133
    -4.3469  -4.1044  -3.8048  -3.7837  -3.5531  -3.5335  -3.2012  -2.9313
    -0.7248  -0.6864  -0.6430  -0.6093  -0.5706  -0.4830  -0.4487  -0.3558
    -0.1196  -0.0894  -0.0380   0.0305   0.4264   0.4575   0.4819   0.5276
     0.5618   0.6143   0.6327   0.6594   0.6964   0.7416   0.7786   0.8269
     0.8847   0.9294   1.0095   1.0324   1.0657   1.1150   1.1537   1.1758
     1.1997   1.2303   1.2769   1.3024   1.3280   1.3481   1.3751   1.3995
     1.4086   1.4438   1.4602   1.4792   1.4940   1.5421   1.5527   1.5798
     1.5984   1.6309   1.6397   1.6799   1.7086   1.7187   1.7505   1.7630
     1.7802   1.8073   1.8693   1.9020   1.9668   1.9960   2.0237   2.0698
     2.0897   2.1507   2.2366   2.3501   2.4168   2.5119   2.8006   2.9010

          k =-0.1250 0.1250-0.3750 (132608 PWs)   bands (ev):

   -18.6087 -18.4911 -18.4807 -18.3932 -18.3469 -18.3424 -18.3349 -18.3258
   -18.3171 -18.2936 -18.2733 -18.2706 -18.2619 -18.2615 -18.2612 -18.2527
   -18.2492 -18.2488 -18.2450 -18.2423 -18.2377 -18.2372 -18.2341 -18.2172
   -18.2080 -18.2032 -18.2004 -18.1994 -18.1920 -18.1892 -18.1882 -18.1794
   -18.1759 -18.1740 -18.1731 -18.1714 -18.1653 -18.1650 -18.1582 -18.1503
   -18.1491 -18.1452 -18.1427 -18.1410 -18.1357 -18.1311 -18.1303 -18.1250
    -9.4611  -9.3545  -9.2693  -9.2107  -9.1649  -9.0795  -9.0432  -9.0085
    -9.0009  -8.9598  -8.9349  -8.8915  -8.8739  -8.8409  -8.8227  -8.8053
    -8.7671  -8.7369  -8.7029  -8.6854  -8.6609  -8.6255  -8.5725  -8.5568
    -5.3665  -5.3576  -5.3504  -5.2530  -5.2499  -5.2460  -5.2434  -5.2374
    -5.2295  -5.1680  -5.1536  -5.1435  -5.0712  -5.0653  -5.0608  -5.0582
    -5.0524  -5.0453  -5.0402  -5.0359  -5.0292  -5.0239  -5.0220  -5.0134
    -4.3460  -4.1070  -3.8025  -3.7842  -3.5489  -3.5377  -3.2014  -2.9312
    -0.7311  -0.6973  -0.6425  -0.6098  -0.5490  -0.4838  -0.4455  -0.3710
    -0.1093  -0.0799  -0.0397   0.0366   0.4210   0.4520   0.4749   0.5194
     0.5557   0.6175   0.6406   0.6584   0.6883   0.7494   0.7892   0.8175
     0.8901   0.9304   1.0049   1.0315   1.0625   1.1336   1.1407   1.1609
     1.1863   1.2434   1.2747   1.2991   1.3220   1.3387   1.3660   1.4089
     1.4380   1.4498   1.4769   1.4813   1.5087   1.5277   1.5575   1.5688
     1.5993   1.6250   1.6397   1.6865   1.6933   1.7041   1.7429   1.7693
     1.8018   1.8155   1.8681   1.9089   1.9619   1.9978   2.0241   2.0533
     2.0922   2.1527   2.2603   2.3119   2.4193   2.5280   2.7795   2.9194

          k = 0.1250-0.1250-0.3750 (132608 PWs)   bands (ev):

   -18.6087 -18.4911 -18.4807 -18.3932 -18.3469 -18.3424 -18.3349 -18.3258
   -18.3171 -18.2936 -18.2733 -18.2706 -18.2619 -18.2615 -18.2612 -18.2527
   -18.2492 -18.2488 -18.2450 -18.2423 -18.2377 -18.2372 -18.2341 -18.2172
   -18.2080 -18.2032 -18.2004 -18.1994 -18.1920 -18.1892 -18.1882 -18.1794
   -18.1759 -18.1740 -18.1731 -18.1714 -18.1653 -18.1650 -18.1582 -18.1503
   -18.1491 -18.1452 -18.1427 -18.1410 -18.1357 -18.1311 -18.1303 -18.1250
    -9.4610  -9.3549  -9.2682  -9.2121  -9.1646  -9.0810  -9.0354  -9.0163
    -8.9997  -8.9568  -8.9355  -8.8957  -8.8709  -8.8446  -8.8242  -8.8027
    -8.7617  -8.7326  -8.7160  -8.6818  -8.6608  -8.6229  -8.5731  -8.5573
    -5.3665  -5.3576  -5.3504  -5.2532  -5.2507  -5.2448  -5.2430  -5.2378
    -5.2297  -5.1680  -5.1537  -5.1435  -5.0710  -5.0656  -5.0608  -5.0581
    -5.0523  -5.0457  -5.0403  -5.0358  -5.0292  -5.0237  -5.0221  -5.0133
    -4.3472  -4.1043  -3.8017  -3.7863  -3.5588  -3.5280  -3.2007  -2.9320
    -0.7211  -0.6880  -0.6476  -0.6214  -0.5510  -0.4927  -0.4389  -0.3592
    -0.1247  -0.0951  -0.0266   0.0325   0.4204   0.4564   0.4848   0.5283
     0.5674   0.6148   0.6356   0.6659   0.6834   0.7334   0.7665   0.8307
     0.8928   0.9258   1.0135   1.0367   1.0623   1.1252   1.1466   1.1561
     1.1855   1.2297   1.2761   1.3226   1.3337   1.3672   1.3827   1.3930
     1.4190   1.4398   1.4572   1.4904   1.5028   1.5226   1.5513   1.5756
     1.6093   1.6242   1.6406   1.6663   1.7067   1.7193   1.7422   1.7629
     1.7903   1.8124   1.8613   1.9069   1.9695   1.9915   2.0237   2.0619
     2.0919   2.1565   2.2448   2.3516   2.4253   2.4887   2.8028   2.9024

          k = 0.3750-0.1250 0.1250 (132608 PWs)   bands (ev):

   -18.6087 -18.4911 -18.4807 -18.3932 -18.3469 -18.3424 -18.3349 -18.3258
   -18.3171 -18.2936 -18.2733 -18.2706 -18.2619 -18.2615 -18.2612 -18.2527
   -18.2492 -18.2488 -18.2450 -18.2423 -18.2377 -18.2372 -18.2341 -18.2172
   -18.2080 -18.2032 -18.2004 -18.1994 -18.1920 -18.1892 -18.1882 -18.1794
   -18.1759 -18.1740 -18.1731 -18.1714 -18.1653 -18.1650 -18.1582 -18.1503
   -18.1491 -18.1452 -18.1427 -18.1410 -18.1357 -18.1311 -18.1303 -18.1250
    -9.4522  -9.3752  -9.2743  -9.1942  -9.1464  -9.0936  -9.0391  -9.0226
    -8.9797  -8.9615  -8.9435  -8.9062  -8.8642  -8.8362  -8.8202  -8.8094
    -8.7855  -8.7360  -8.6988  -8.6856  -8.6463  -8.6187  -8.5810  -8.5593
    -5.3665  -5.3577  -5.3503  -5.2529  -5.2499  -5.2459  -5.2433  -5.2374
    -5.2296  -5.1679  -5.1536  -5.1436  -5.0718  -5.0648  -5.0609  -5.0586
    -5.0515  -5.0446  -5.0413  -5.0350  -5.0292  -5.0242  -5.0222  -5.0132
    -4.3324  -4.1005  -3.8144  -3.7731  -3.5691  -3.5390  -3.2060  -2.9551
    -0.7038  -0.6850  -0.6114  -0.5919  -0.5604  -0.4808  -0.4122  -0.3606
    -0.1496  -0.0996  -0.0197   0.0621   0.3636   0.4605   0.5103   0.5473
     0.5685   0.6163   0.6391   0.6636   0.6915   0.7362   0.7692   0.8087
     0.8942   0.9067   1.0034   1.0353   1.0715   1.1285   1.1689   1.1962
     1.2155   1.2369   1.2768   1.2971   1.3366   1.3533   1.3635   1.3820
     1.4112   1.4271   1.4648   1.4892   1.5134   1.5323   1.5424   1.5714
     1.6047   1.6268   1.6517   1.6670   1.6833   1.7009   1.7245   1.7451
     1.7894   1.8184   1.8710   1.9196   1.9625   1.9781   2.0302   2.0657
     2.1076   2.1252   2.1890   2.3048   2.3821   2.4788   2.7709   2.8593

          k =-0.3750-0.1250-0.1250 (132608 PWs)   bands (ev):

   -18.6087 -18.4911 -18.4807 -18.3932 -18.3469 -18.3424 -18.3349 -18.3258
   -18.3171 -18.2936 -18.2733 -18.2706 -18.2619 -18.2615 -18.2612 -18.2527
   -18.2492 -18.2488 -18.2450 -18.2423 -18.2377 -18.2372 -18.2341 -18.2172
   -18.2080 -18.2032 -18.2004 -18.1994 -18.1920 -18.1892 -18.1882 -18.1794
   -18.1759 -18.1740 -18.1731 -18.1714 -18.1653 -18.1650 -18.1582 -18.1503
   -18.1491 -18.1452 -18.1427 -18.1410 -18.1357 -18.1311 -18.1303 -18.1250
    -9.4521  -9.3746  -9.2767  -9.1924  -9.1504  -9.0787  -9.0435  -9.0298
    -8.9901  -8.9508  -8.9386  -8.9124  -8.8630  -8.8356  -8.8243  -8.7981
    -8.7938  -8.7353  -8.6972  -8.6860  -8.6469  -8.6182  -8.5825  -8.5585
    -5.3664  -5.3578  -5.3503  -5.2529  -5.2498  -5.2460  -5.2434  -5.2374
    -5.2295  -5.1679  -5.1536  -5.1435  -5.0718  -5.0652  -5.0608  -5.0584
    -5.0512  -5.0451  -5.0411  -5.0350  -5.0295  -5.0244  -5.0218  -5.0132
    -4.3320  -4.1008  -3.8126  -3.7749  -3.5708  -3.5380  -3.2078  -2.9522
    -0.7159  -0.6699  -0.6365  -0.5835  -0.5523  -0.4683  -0.4088  -0.3855
    -0.1378  -0.0909  -0.0226   0.0647   0.3542   0.4710   0.5050   0.5477
     0.5743   0.6201   0.6343   0.6814   0.6929   0.7220   0.7566   0.8118
     0.8904   0.9148   0.9896   1.0550   1.0979   1.1225   1.1443   1.1654
     1.2048   1.2546   1.2870   1.3042   1.3257   1.3452   1.3558   1.4066
     1.4146   1.4349   1.4475   1.4900   1.5019   1.5291   1.5523   1.5891
     1.6006   1.6223   1.6424   1.6702   1.6888   1.7052   1.7226   1.7437
     1.7767   1.8290   1.8609   1.9208   1.9491   1.9887   2.0528   2.0764
     2.0922   2.1259   2.1981   2.2920   2.3643   2.4804   2.7668   2.8883

          k = 0.3750 0.1250-0.1250 (132608 PWs)   bands (ev):

   -18.6087 -18.4911 -18.4807 -18.3932 -18.3469 -18.3424 -18.3349 -18.3258
   -18.3171 -18.2936 -18.2733 -18.2706 -18.2619 -18.2615 -18.2612 -18.2527
   -18.2492 -18.2488 -18.2450 -18.2423 -18.2377 -18.2372 -18.2341 -18.2172
   -18.2080 -18.2032 -18.2004 -18.1994 -18.1920 -18.1892 -18.1882 -18.1794
   -18.1759 -18.1740 -18.1731 -18.1714 -18.1653 -18.1650 -18.1582 -18.1503
   -18.1491 -18.1452 -18.1427 -18.1410 -18.1357 -18.1311 -18.1303 -18.1250
    -9.4523  -9.3748  -9.2748  -9.1966  -9.1425  -9.0939  -9.0355  -9.0246
    -8.9822  -8.9678  -8.9382  -8.9082  -8.8596  -8.8358  -8.8231  -8.8070
    -8.7856  -8.7377  -8.7009  -8.6846  -8.6454  -8.6167  -8.5826  -8.5592
    -5.3665  -5.3577  -5.3503  -5.2531  -5.2506  -5.2448  -5.2429  -5.2378
    -5.2297  -5.1679  -5.1536  -5.1435  -5.0716  -5.0650  -5.0609  -5.0585
    -5.0515  -5.0448  -5.0409  -5.0351  -5.0294  -5.0244  -5.0220  -5.0131
    -4.3333  -4.0987  -3.8113  -3.7773  -3.5780  -3.5282  -3.2098  -2.9532
    -0.7055  -0.6693  -0.6202  -0.6040  -0.5532  -0.4643  -0.4040  -0.3875
    -0.1458  -0.0832  -0.0449   0.0538   0.3616   0.4637   0.5115   0.5591
     0.5693   0.6176   0.6317   0.6814   0.6998   0.7195   0.7771   0.8140
     0.8912   0.9058   1.0076   1.0375   1.0793   1.1132   1.1521   1.1766
     1.2224   1.2566   1.2752   1.3062   1.3428   1.3553   1.3655   1.3911
     1.4044   1.4309   1.4432   1.4791   1.5076   1.5324   1.5489   1.5838
     1.5982   1.6182   1.6426   1.6745   1.6904   1.7072   1.7370   1.7549
     1.7686   1.8401   1.8707   1.8979   1.9316   1.9762   2.0516   2.0728
     2.1020   2.1177   2.2114   2.2909   2.3814   2.4756   2.7591   2.8801

          k =-0.3750 0.1250 0.1250 (132608 PWs)   bands (ev):

   -18.6087 -18.4911 -18.4807 -18.3932 -18.3469 -18.3424 -18.3349 -18.3258
   -18.3171 -18.2936 -18.2733 -18.2706 -18.2619 -18.2615 -18.2612 -18.2527
   -18.2492 -18.2488 -18.2450 -18.2423 -18.2377 -18.2372 -18.2341 -18.2172
   -18.2080 -18.2032 -18.2004 -18.1994 -18.1920 -18.1892 -18.1882 -18.1794
   -18.1759 -18.1740 -18.1731 -18.1714 -18.1653 -18.1650 -18.1582 -18.1503
   -18.1491 -18.1452 -18.1427 -18.1410 -18.1357 -18.1311 -18.1303 -18.1250
    -9.4522  -9.3752  -9.2731  -9.2030  -9.1340  -9.0933  -9.0403  -9.0237
    -8.9943  -8.9566  -8.9319  -8.9116  -8.8593  -8.8467  -8.8215  -8.7944
    -8.7902  -8.7353  -8.7068  -8.6833  -8.6447  -8.6170  -8.5818  -8.5596
    -5.3665  -5.3578  -5.3503  -5.2532  -5.2506  -5.2448  -5.2429  -5.2379
    -5.2297  -5.1678  -5.1537  -5.1435  -5.0717  -5.0652  -5.0607  -5.0584
    -5.0513  -5.0450  -5.0414  -5.0350  -5.0293  -5.0242  -5.0222  -5.0130
    -4.3336  -4.0980  -3.8111  -3.7786  -3.5793  -3.5271  -3.2072  -2.9552
    -0.7127  -0.6604  -0.6233  -0.6072  -0.5410  -0.4734  -0.4123  -0.3724
    -0.1510  -0.0805  -0.0449   0.0476   0.3740   0.4564   0.5216   0.5443
     0.5683   0.6104   0.6401   0.6736   0.6907   0.7380   0.7854   0.8136
     0.8818   0.9142   1.0005   1.0328   1.0923   1.1178   1.1353   1.1860
     1.2214   1.2436   1.2714   1.3029   1.3266   1.3432   1.3681   1.3735
     1.4136   1.4438   1.4734   1.5005   1.5120   1.5312   1.5672   1.5810
     1.5919   1.6111   1.6531   1.6660   1.6822   1.6999   1.7284   1.7446
     1.7846   1.8296   1.8820   1.9062   1.9324   1.9769   2.0386   2.0843
     2.0948   2.1296   2.1849   2.3024   2.3694   2.4864   2.7778   2.8610

          k =-0.1250 0.3750 0.1250 (132608 PWs)   bands (ev):

   -18.6087 -18.4911 -18.4807 -18.3932 -18.3469 -18.3424 -18.3349 -18.3258
   -18.3171 -18.2936 -18.2733 -18.2706 -18.2619 -18.2615 -18.2612 -18.2527
   -18.2492 -18.2488 -18.2450 -18.2423 -18.2377 -18.2372 -18.2341 -18.2172
   -18.2080 -18.2032 -18.2004 -18.1994 -18.1920 -18.1892 -18.1882 -18.1794
   -18.1759 -18.1740 -18.1730 -18.1714 -18.1653 -18.1650 -18.1582 -18.1503
   -18.1491 -18.1452 -18.1427 -18.1410 -18.1357 -18.1311 -18.1303 -18.1250
    -9.4559  -9.3652  -9.2825  -9.1996  -9.1385  -9.0922  -9.0392  -9.0154
    -8.9960  -8.9543  -8.9436  -8.9072  -8.8597  -8.8436  -8.8204  -8.8061
    -8.7759  -8.7403  -8.7043  -8.6823  -8.6476  -8.6254  -8.5836  -8.5509
    -5.3665  -5.3577  -5.3503  -5.2537  -5.2522  -5.2437  -5.2424  -5.2371
    -5.2293  -5.1679  -5.1538  -5.1437  -5.0716  -5.0648  -5.0611  -5.0576
    -5.0511  -5.0480  -5.0395  -5.0357  -5.0291  -5.0237  -5.0221  -5.0132
    -4.3362  -4.1043  -3.8182  -3.7651  -3.5710  -3.5212  -3.2219  -2.9483
    -0.7223  -0.6600  -0.6196  -0.5645  -0.5212  -0.4814  -0.4573  -0.3924
    -0.1389  -0.1072  -0.0269   0.0610   0.3895   0.4290   0.4790   0.5377
     0.5711   0.6072   0.6431   0.6679   0.7189   0.7400   0.7795   0.8087
     0.8892   0.9078   0.9681   1.0751   1.0870   1.1051   1.1494   1.1794
     1.1996   1.2409   1.2902   1.3082   1.3423   1.3557   1.3609   1.3915
     1.4146   1.4532   1.4671   1.4866   1.5235   1.5466   1.5496   1.5745
     1.5893   1.6138   1.6343   1.6700   1.7007   1.7233   1.7334   1.7531
     1.7995   1.8274   1.8609   1.8919   1.9478   1.9769   1.9906   2.0322
     2.0955   2.1528   2.1833   2.3540   2.4155   2.5248   2.6946   2.8833

          k =-0.1250-0.3750-0.1250 (132608 PWs)   bands (ev):

   -18.6087 -18.4911 -18.4807 -18.3932 -18.3469 -18.3424 -18.3349 -18.3258
   -18.3171 -18.2936 -18.2733 -18.2706 -18.2619 -18.2615 -18.2612 -18.2527
   -18.2492 -18.2488 -18.2450 -18.2423 -18.2377 -18.2372 -18.2341 -18.2172
   -18.2080 -18.2032 -18.2004 -18.1994 -18.1920 -18.1892 -18.1882 -18.1794
   -18.1759 -18.1740 -18.1730 -18.1714 -18.1653 -18.1650 -18.1582 -18.1503
   -18.1491 -18.1452 -18.1427 -18.1410 -18.1357 -18.1311 -18.1303 -18.1250
    -9.4559  -9.3645  -9.2848  -9.1935  -9.1492  -9.0852  -9.0328  -9.0214
    -8.9944  -8.9640  -8.9355  -8.9094  -8.8568  -8.8431  -8.8220  -8.8083
    -8.7774  -8.7376  -8.7029  -8.6826  -8.6464  -8.6276  -8.5841  -8.5504
    -5.3665  -5.3577  -5.3504  -5.2531  -5.2523  -5.2442  -5.2430  -5.2367
    -5.2292  -5.1680  -5.1538  -5.1438  -5.0718  -5.0647  -5.0612  -5.0576
    -5.0510  -5.0479  -5.0392  -5.0357  -5.0294  -5.0242  -5.0215  -5.0134
    -4.3354  -4.1045  -3.8189  -3.7649  -3.5760  -3.5166  -3.2233  -2.9456
    -0.7386  -0.6407  -0.6314  -0.5942  -0.5159  -0.4517  -0.4474  -0.3974
    -0.1494  -0.0867  -0.0383   0.0717   0.3760   0.4225   0.4921   0.5471
     0.5663   0.6134   0.6406   0.6643   0.7118   0.7418   0.7704   0.8168
     0.8847   0.9182   0.9721   1.0511   1.0786   1.1175   1.1608   1.1798
     1.2211   1.2398   1.2968   1.3129   1.3349   1.3426   1.3585   1.3746
     1.4041   1.4381   1.4529   1.4976   1.5119   1.5310   1.5561   1.5766
     1.6026   1.6272   1.6474   1.6769   1.7008   1.7166   1.7347   1.7692
     1.7837   1.8211   1.8628   1.8881   1.9567   1.9799   2.0096   2.0284
     2.0860   2.1387   2.2026   2.3575   2.3944   2.5207   2.7001   2.9058

          k = 0.1250 0.3750-0.1250 (132608 PWs)   bands (ev):

   -18.6087 -18.4911 -18.4807 -18.3932 -18.3469 -18.3424 -18.3349 -18.3258
   -18.3171 -18.2936 -18.2733 -18.2706 -18.2619 -18.2615 -18.2612 -18.2527
   -18.2492 -18.2488 -18.2450 -18.2423 -18.2377 -18.2372 -18.2341 -18.2172
   -18.2080 -18.2032 -18.2004 -18.1994 -18.1920 -18.1892 -18.1882 -18.1794
   -18.1759 -18.1740 -18.1730 -18.1714 -18.1653 -18.1650 -18.1582 -18.1503
   -18.1491 -18.1452 -18.1427 -18.1410 -18.1357 -18.1311 -18.1303 -18.1250
    -9.4561  -9.3644  -9.2840  -9.1986  -9.1413  -9.0819  -9.0463  -9.0205
    -8.9909  -8.9643  -8.9356  -8.9070  -8.8584  -8.8386  -8.8220  -8.8076
    -8.7771  -8.7454  -8.6994  -8.6818  -8.6474  -8.6271  -8.5837  -8.5506
    -5.3665  -5.3577  -5.3504  -5.2536  -5.2521  -5.2438  -5.2424  -5.2370
    -5.2294  -5.1680  -5.1538  -5.1437  -5.0716  -5.0646  -5.0613  -5.0578
    -5.0515  -5.0474  -5.0391  -5.0358  -5.0292  -5.0242  -5.0218  -5.0132
    -4.3357  -4.1053  -3.8182  -3.7644  -3.5709  -3.5198  -3.2256  -2.9460
    -0.7246  -0.6588  -0.6392  -0.5485  -0.5162  -0.4733  -0.4406  -0.4045
    -0.1730  -0.1048  -0.0271   0.0791   0.3782   0.4313   0.4886   0.5546
     0.5723   0.6003   0.6422   0.6595   0.7144   0.7481   0.7599   0.8269
     0.8874   0.9090   0.9672   1.0723   1.0928   1.1120   1.1571   1.1662
     1.1969   1.2549   1.2822   1.3001   1.3320   1.3645   1.3703   1.3949
     1.4179   1.4339   1.4610   1.5032   1.5197   1.5349   1.5443   1.5781
     1.5917   1.6132   1.6365   1.6631   1.7010   1.7290   1.7460   1.7616
     1.7901   1.8360   1.8593   1.8813   1.9269   1.9724   2.0080   2.0265
     2.0920   2.1472   2.2080   2.3489   2.4129   2.5285   2.6872   2.8922

          k = 0.1250-0.3750 0.1250 (132608 PWs)   bands (ev):

   -18.6087 -18.4911 -18.4807 -18.3932 -18.3469 -18.3424 -18.3349 -18.3258
   -18.3171 -18.2936 -18.2733 -18.2706 -18.2619 -18.2615 -18.2612 -18.2527
   -18.2492 -18.2488 -18.2450 -18.2423 -18.2377 -18.2372 -18.2341 -18.2172
   -18.2080 -18.2032 -18.2004 -18.1994 -18.1920 -18.1892 -18.1882 -18.1794
   -18.1759 -18.1740 -18.1731 -18.1714 -18.1653 -18.1650 -18.1582 -18.1503
   -18.1491 -18.1452 -18.1427 -18.1410 -18.1357 -18.1311 -18.1303 -18.1250
    -9.4561  -9.3649  -9.2823  -9.2004  -9.1387  -9.0915  -9.0350  -9.0197
    -8.9956  -8.9651  -8.9334  -8.9039  -8.8652  -8.8384  -8.8220  -8.8066
    -8.7753  -8.7441  -8.7009  -8.6825  -8.6463  -8.6283  -8.5831  -8.5506
    -5.3665  -5.3577  -5.3504  -5.2531  -5.2523  -5.2441  -5.2431  -5.2367
    -5.2292  -5.1680  -5.1538  -5.1438  -5.0718  -5.0645  -5.0612  -5.0578
    -5.0515  -5.0473  -5.0393  -5.0357  -5.0291  -5.0240  -5.0219  -5.0134
    -4.3356  -4.1046  -3.8195  -3.7649  -3.5735  -3.5173  -3.2223  -2.9482
    -0.7411  -0.6567  -0.6071  -0.5906  -0.5194  -0.4548  -0.4352  -0.3883
    -0.1597  -0.1310  -0.0174   0.0693   0.3929   0.4303   0.4724   0.5574
     0.5708   0.5980   0.6299   0.6894   0.7141   0.7416   0.7650   0.8056
     0.8912   0.9058   0.9776   1.0418   1.0795   1.1294   1.1681   1.1839
     1.2252   1.2475   1.2829   1.2990   1.3367   1.3470   1.3625   1.3668
     1.3834   1.4629   1.4698   1.5017   1.5195   1.5459   1.5490   1.5768
     1.5874   1.6147   1.6482   1.6717   1.7052   1.7212   1.7379   1.7469
     1.7990   1.8425   1.8525   1.8870   1.9500   1.9796   1.9950   2.0300
     2.0753   2.1562   2.2026   2.3419   2.4132   2.5158   2.7206   2.8767

          k =-0.1250-0.3750 0.3750 (132616 PWs)   bands (ev):

   -18.6087 -18.4911 -18.4807 -18.3932 -18.3469 -18.3424 -18.3349 -18.3258
   -18.3171 -18.2936 -18.2733 -18.2706 -18.2619 -18.2615 -18.2612 -18.2527
   -18.2492 -18.2488 -18.2450 -18.2423 -18.2377 -18.2372 -18.2341 -18.2172
   -18.2080 -18.2032 -18.2004 -18.1994 -18.1920 -18.1892 -18.1882 -18.1794
   -18.1759 -18.1740 -18.1731 -18.1714 -18.1653 -18.1650 -18.1582 -18.1503
   -18.1491 -18.1452 -18.1427 -18.1410 -18.1357 -18.1311 -18.1303 -18.1250
    -9.4487  -9.3592  -9.2761  -9.2097  -9.1516  -9.1137  -9.0491  -9.0181
    -8.9925  -8.9645  -8.9338  -8.8936  -8.8560  -8.8342  -8.8183  -8.7950
    -8.7628  -8.7355  -8.6962  -8.6875  -8.6640  -8.6262  -8.5849  -8.5583
    -5.3665  -5.3577  -5.3504  -5.2532  -5.2505  -5.2449  -5.2429  -5.2378
    -5.2296  -5.1679  -5.1536  -5.1435  -5.0706  -5.0651  -5.0609  -5.0578
    -5.0531  -5.0477  -5.0391  -5.0359  -5.0289  -5.0240  -5.0218  -5.0134
    -4.2200  -4.0133  -3.9342  -3.7313  -3.6607  -3.4445  -3.3629  -3.1437
    -0.6918  -0.6070  -0.5859  -0.5083  -0.3295  -0.2563  -0.1894  -0.1190
    -0.0787  -0.0224   0.0481   0.1436   0.3508   0.4218   0.4687   0.4904
     0.5354   0.5533   0.5683   0.5911   0.6284   0.6809   0.7139   0.7497
     0.8008   0.8803   0.9183   0.9528   1.0064   1.0343   1.0626   1.0891
     1.1496   1.1916   1.1967   1.2505   1.3154   1.3261   1.3437   1.3562
     1.4074   1.4288   1.4346   1.4936   1.5174   1.5612   1.5739   1.6191
     1.6544   1.6643   1.6908   1.7150   1.7415   1.7525   1.7699   1.7955
     1.8094   1.8364   1.8722   1.8967   1.9296   1.9569   1.9872   2.0112
     2.0327   2.0583   2.0936   2.1624   2.3546   2.4283   2.5495   2.6299

          k =-0.1250 0.3750-0.3750 (132616 PWs)   bands (ev):

   -18.6087 -18.4911 -18.4807 -18.3932 -18.3469 -18.3424 -18.3349 -18.3258
   -18.3171 -18.2936 -18.2733 -18.2706 -18.2619 -18.2615 -18.2612 -18.2527
   -18.2492 -18.2488 -18.2450 -18.2423 -18.2377 -18.2372 -18.2341 -18.2172
   -18.2080 -18.2032 -18.2004 -18.1994 -18.1920 -18.1892 -18.1882 -18.1794
   -18.1759 -18.1740 -18.1731 -18.1714 -18.1653 -18.1650 -18.1582 -18.1503
   -18.1491 -18.1452 -18.1427 -18.1410 -18.1357 -18.1311 -18.1303 -18.1250
    -9.4486  -9.3596  -9.2756  -9.2057  -9.1576  -9.1175  -9.0345  -9.0210
    -9.0021  -8.9605  -8.9328  -8.8944  -8.8583  -8.8323  -8.8152  -8.7995
    -8.7649  -8.7307  -8.6962  -8.6902  -8.6616  -8.6288  -8.5840  -8.5581
    -5.3665  -5.3577  -5.3504  -5.2529  -5.2499  -5.2460  -5.2432  -5.2374
    -5.2295  -5.1679  -5.1536  -5.1436  -5.0708  -5.0649  -5.0608  -5.0577
    -5.0531  -5.0477  -5.0393  -5.0358  -5.0287  -5.0238  -5.0220  -5.0135
    -4.2194  -4.0148  -3.9330  -3.7348  -3.6588  -3.4428  -3.3619  -3.1449
    -0.7036  -0.6134  -0.5794  -0.5057  -0.3235  -0.2493  -0.1787  -0.1064
    -0.0855  -0.0228   0.0464   0.1351   0.3531   0.4137   0.4496   0.4867
     0.5207   0.5478   0.5651   0.6022   0.6446   0.6948   0.7189   0.7584
     0.7884   0.8664   0.9128   0.9622   1.0124   1.0436   1.0740   1.0988
     1.1434   1.1704   1.2010   1.2493   1.2887   1.3047   1.3476   1.3790
     1.3821   1.4377   1.4672   1.4880   1.5265   1.5674   1.5909   1.6071
     1.6400   1.6586   1.6891   1.7181   1.7339   1.7505   1.7770   1.7971
     1.8283   1.8462   1.8700   1.8962   1.9272   1.9671   1.9838   2.0038
     2.0264   2.0566   2.0984   2.1626   2.3142   2.4447   2.5485   2.6469

          k = 0.1250-0.3750-0.3750 (132616 PWs)   bands (ev):

   -18.6087 -18.4911 -18.4807 -18.3932 -18.3469 -18.3424 -18.3349 -18.3258
   -18.3171 -18.2936 -18.2733 -18.2706 -18.2619 -18.2615 -18.2612 -18.2527
   -18.2492 -18.2488 -18.2450 -18.2423 -18.2377 -18.2372 -18.2341 -18.2172
   -18.2080 -18.2032 -18.2004 -18.1994 -18.1920 -18.1892 -18.1882 -18.1794
   -18.1759 -18.1740 -18.1731 -18.1714 -18.1653 -18.1650 -18.1582 -18.1503
   -18.1491 -18.1452 -18.1427 -18.1410 -18.1357 -18.1311 -18.1303 -18.1250
    -9.4485  -9.3600  -9.2761  -9.2025  -9.1610  -9.1172  -9.0332  -9.0240
    -8.9962  -8.9616  -8.9353  -8.8960  -8.8557  -8.8348  -8.8151  -8.7994
    -8.7640  -8.7253  -8.7045  -8.6864  -8.6642  -8.6256  -8.5845  -8.5585
    -5.3665  -5.3577  -5.3504  -5.2532  -5.2507  -5.2448  -5.2429  -5.2378
    -5.2296  -5.1678  -5.1536  -5.1435  -5.0706  -5.0652  -5.0608  -5.0575
    -5.0529  -5.0481  -5.0394  -5.0358  -5.0288  -5.0235  -5.0221  -5.0134
    -4.2209  -4.0080  -3.9409  -3.7277  -3.6588  -3.4573  -3.3505  -3.1464
    -0.6896  -0.6153  -0.5825  -0.4968  -0.3407  -0.2821  -0.1856  -0.1212
    -0.0363  -0.0167   0.0766   0.1116   0.3384   0.4209   0.4492   0.4759
     0.5254   0.5535   0.5631   0.6084   0.6540   0.6924   0.7072   0.7348
     0.8093   0.8797   0.9191   0.9607   0.9982   1.0390   1.0739   1.0877
     1.1170   1.1724   1.2295   1.2661   1.2906   1.3288   1.3445   1.3615
     1.3908   1.4329   1.4566   1.5077   1.5239   1.5672   1.5932   1.6159
     1.6333   1.6546   1.6841   1.7025   1.7402   1.7508   1.7752   1.7852
     1.8103   1.8355   1.8810   1.9105   1.9318   1.9496   1.9816   1.9971
     2.0319   2.0704   2.1117   2.1657   2.3309   2.4407   2.5268   2.6471

          k = 0.3750 0.1250-0.3750 (132616 PWs)   bands (ev):

   -18.6087 -18.4911 -18.4807 -18.3932 -18.3469 -18.3424 -18.3349 -18.3258
   -18.3171 -18.2936 -18.2733 -18.2706 -18.2619 -18.2615 -18.2612 -18.2527
   -18.2492 -18.2488 -18.2450 -18.2423 -18.2377 -18.2372 -18.2341 -18.2172
   -18.2080 -18.2032 -18.2004 -18.1994 -18.1920 -18.1892 -18.1882 -18.1794
   -18.1759 -18.1740 -18.1731 -18.1714 -18.1653 -18.1650 -18.1582 -18.1503
   -18.1491 -18.1452 -18.1427 -18.1410 -18.1357 -18.1312 -18.1303 -18.1250
    -9.4447  -9.3687  -9.2682  -9.2127  -9.1579  -9.0994  -9.0455  -9.0227
    -8.9997  -8.9666  -8.9328  -8.8870  -8.8703  -8.8414  -8.8090  -8.7884
    -8.7574  -8.7384  -8.7018  -8.6887  -8.6569  -8.6225  -8.5861  -8.5628
    -5.3664  -5.3576  -5.3503  -5.2549  -5.2500  -5.2454  -5.2420  -5.2371
    -5.2296  -5.1680  -5.1536  -5.1435  -5.0713  -5.0654  -5.0611  -5.0584
    -5.0523  -5.0450  -5.0404  -5.0351  -5.0295  -5.0243  -5.0221  -5.0129
    -4.2177  -4.0040  -3.9342  -3.7419  -3.6673  -3.4418  -3.3594  -3.1491
    -0.6851  -0.6310  -0.5754  -0.4474  -0.3439  -0.2839  -0.2279  -0.1215
    -0.0722   0.0247   0.0461   0.1112   0.3346   0.4475   0.4723   0.4809
     0.5260   0.5575   0.5839   0.6109   0.6506   0.6711   0.7056   0.7459
     0.8191   0.8840   0.9188   0.9669   0.9898   1.0176   1.0612   1.1064
     1.1399   1.2020   1.2094   1.2536   1.2822   1.3213   1.3580   1.3851
     1.4078   1.4435   1.4698   1.4779   1.5043   1.5567   1.5753   1.5976
     1.6256   1.6517   1.6800   1.7139   1.7381   1.7484   1.7587   1.7738
     1.7977   1.8270   1.8737   1.8881   1.9356   1.9718   1.9864   2.0202
     2.0461   2.0883   2.1492   2.1910   2.2988   2.3809   2.5606   2.5842

          k =-0.3750-0.1250-0.3750 (132616 PWs)   bands (ev):

   -18.6087 -18.4911 -18.4807 -18.3932 -18.3469 -18.3424 -18.3349 -18.3258
   -18.3171 -18.2936 -18.2733 -18.2706 -18.2619 -18.2615 -18.2612 -18.2527
   -18.2492 -18.2488 -18.2450 -18.2423 -18.2377 -18.2372 -18.2341 -18.2172
   -18.2080 -18.2032 -18.2004 -18.1994 -18.1920 -18.1892 -18.1882 -18.1794
   -18.1759 -18.1740 -18.1731 -18.1714 -18.1653 -18.1650 -18.1582 -18.1503
   -18.1491 -18.1452 -18.1427 -18.1410 -18.1357 -18.1311 -18.1303 -18.1250
    -9.4445  -9.3684  -9.2715  -9.2066  -9.1649  -9.0881  -9.0546  -9.0204
    -9.0047  -8.9623  -8.9298  -8.8891  -8.8730  -8.8412  -8.8076  -8.7882
    -8.7613  -8.7363  -8.6963  -8.6886  -8.6598  -8.6246  -8.5858  -8.5620
    -5.3664  -5.3577  -5.3503  -5.2547  -5.2494  -5.2461  -5.2426  -5.2368
    -5.2294  -5.1679  -5.1536  -5.1435  -5.0715  -5.0655  -5.0610  -5.0582
    -5.0521  -5.0453  -5.0405  -5.0351  -5.0296  -5.0243  -5.0219  -5.0131
    -4.2142  -4.0162  -3.9272  -3.7360  -3.6687  -3.4566  -3.3477  -3.1483
    -0.6907  -0.6322  -0.5730  -0.4473  -0.3879  -0.2575  -0.1945  -0.1281
    -0.0966   0.0052   0.1001   0.1508   0.3256   0.4112   0.4345   0.5021
     0.5257   0.5676   0.5862   0.6142   0.6404   0.6735   0.7111   0.7332
     0.8153   0.8880   0.9204   0.9473   1.0068   1.0213   1.0438   1.1150
     1.1317   1.1969   1.2412   1.2634   1.2758   1.3088   1.3468   1.3741
     1.4255   1.4470   1.4655   1.4932   1.5111   1.5348   1.5612   1.6021
     1.6157   1.6693   1.6973   1.7078   1.7282   1.7358   1.7590   1.7800
     1.8150   1.8346   1.8541   1.9020   1.9216   1.9718   2.0009   2.0299
     2.0533   2.0806   2.1244   2.1937   2.2917   2.3997   2.5324   2.6134

          k = 0.3750-0.1250 0.3750 (132616 PWs)   bands (ev):

   -18.6087 -18.4911 -18.4807 -18.3932 -18.3469 -18.3424 -18.3349 -18.3258
   -18.3171 -18.2936 -18.2733 -18.2706 -18.2619 -18.2615 -18.2612 -18.2527
   -18.2492 -18.2488 -18.2450 -18.2423 -18.2377 -18.2372 -18.2341 -18.2172
   -18.2080 -18.2032 -18.2004 -18.1994 -18.1920 -18.1892 -18.1882 -18.1794
   -18.1759 -18.1740 -18.1731 -18.1714 -18.1653 -18.1650 -18.1583 -18.1503
   -18.1491 -18.1452 -18.1427 -18.1410 -18.1357 -18.1312 -18.1303 -18.1250
    -9.4447  -9.3689  -9.2701  -9.2002  -9.1720  -9.0984  -9.0450  -9.0181
    -9.0013  -8.9656  -8.9339  -8.8892  -8.8696  -8.8398  -8.8039  -8.7940
    -8.7661  -8.7314  -8.6979  -8.6876  -8.6597  -8.6256  -8.5846  -8.5624
    -5.3664  -5.3577  -5.3503  -5.2547  -5.2495  -5.2461  -5.2425  -5.2368
    -5.2294  -5.1679  -5.1536  -5.1436  -5.0715  -5.0652  -5.0611  -5.0584
    -5.0523  -5.0448  -5.0407  -5.0351  -5.0292  -5.0242  -5.0223  -5.0131
    -4.2148  -4.0165  -3.9275  -3.7356  -3.6659  -3.4566  -3.3478  -3.1506
    -0.6874  -0.6293  -0.5845  -0.4436  -0.3703  -0.2602  -0.1917  -0.1347
    -0.0927  -0.0024   0.0980   0.1406   0.3153   0.4162   0.4526   0.4914
     0.4998   0.5612   0.5779   0.6239   0.6470   0.6792   0.7216   0.7595
     0.8062   0.8763   0.9258   0.9508   0.9968   1.0182   1.0656   1.1331
     1.1478   1.1818   1.1906   1.2518   1.2864   1.3140   1.3556   1.3886
     1.4072   1.4469   1.4819   1.5001   1.5115   1.5557   1.5666   1.5985
     1.6224   1.6573   1.6705   1.6899   1.7210   1.7380   1.7676   1.7827
     1.8240   1.8437   1.8572   1.9160   1.9244   1.9502   2.0034   2.0220
     2.0416   2.0792   2.1321   2.2204   2.2780   2.3996   2.5243   2.6082

          k =-0.3750 0.1250 0.3750 (132616 PWs)   bands (ev):

   -18.6087 -18.4911 -18.4807 -18.3932 -18.3469 -18.3424 -18.3349 -18.3258
   -18.3171 -18.2936 -18.2733 -18.2706 -18.2619 -18.2615 -18.2612 -18.2527
   -18.2492 -18.2488 -18.2450 -18.2423 -18.2377 -18.2372 -18.2341 -18.2172
   -18.2080 -18.2032 -18.2004 -18.1994 -18.1920 -18.1892 -18.1882 -18.1794
   -18.1759 -18.1740 -18.1731 -18.1714 -18.1653 -18.1650 -18.1583 -18.1503
   -18.1491 -18.1452 -18.1427 -18.1410 -18.1357 -18.1311 -18.1303 -18.1250
    -9.4446  -9.3690  -9.2678  -9.2125  -9.1603  -9.0943  -9.0416  -9.0291
    -9.0069  -8.9610  -8.9277  -8.8924  -8.8690  -8.8443  -8.8055  -8.7872
    -8.7622  -8.7314  -8.7077  -8.6872  -8.6568  -8.6230  -8.5856  -8.5627
    -5.3664  -5.3577  -5.3503  -5.2549  -5.2500  -5.2454  -5.2420  -5.2371
    -5.2296  -5.1679  -5.1537  -5.1435  -5.0713  -5.0656  -5.0609  -5.0583
    -5.0522  -5.0452  -5.0408  -5.0351  -5.0293  -5.0241  -5.0223  -5.0129
    -4.2179  -4.0045  -3.9330  -3.7442  -3.6656  -3.4410  -3.3591  -3.1500
    -0.6907  -0.6275  -0.5788  -0.4368  -0.3435  -0.2782  -0.2404  -0.1148
    -0.0621   0.0135   0.0450   0.1059   0.3486   0.4200   0.4698   0.4914
     0.5273   0.5584   0.5771   0.6188   0.6456   0.6682   0.7180   0.7495
     0.8256   0.8723   0.9173   0.9582   0.9937   1.0140   1.0597   1.1262
     1.1444   1.1696   1.2144   1.2515   1.2877   1.3178   1.3618   1.3940
     1.4163   1.4237   1.4793   1.5016   1.5189   1.5356   1.5709   1.6079
     1.6434   1.6563   1.6857   1.6986   1.7183   1.7456   1.7524   1.7729
     1.7904   1.8350   1.8650   1.8959   1.9239   1.9778   2.0007   2.0113
     2.0456   2.0755   2.1618   2.1910   2.2922   2.3949   2.5492   2.5886

          k = 0.3750-0.3750 0.1250 (132616 PWs)   bands (ev):

   -18.6087 -18.4911 -18.4807 -18.3932 -18.3469 -18.3424 -18.3349 -18.3258
   -18.3171 -18.2936 -18.2733 -18.2706 -18.2619 -18.2615 -18.2612 -18.2527
   -18.2492 -18.2488 -18.2450 -18.2423 -18.2377 -18.2372 -18.2341 -18.2172
   -18.2080 -18.2032 -18.2004 -18.1994 -18.1920 -18.1892 -18.1882 -18.1794
   -18.1759 -18.1740 -18.1731 -18.1714 -18.1653 -18.1650 -18.1582 -18.1503
   -18.1491 -18.1452 -18.1427 -18.1410 -18.1357 -18.1311 -18.1303 -18.1250
    -9.4406  -9.3715  -9.2880  -9.2085  -9.1299  -9.0997  -9.0459  -9.0231
    -8.9985  -8.9671  -8.9424  -8.9087  -8.8471  -8.8334  -8.8158  -8.7995
    -8.7675  -8.7300  -8.7043  -8.6850  -8.6492  -8.6230  -8.5900  -8.5610
    -5.3665  -5.3577  -5.3503  -5.2529  -5.2499  -5.2460  -5.2431  -5.2374
    -5.2294  -5.1679  -5.1537  -5.1437  -5.0716  -5.0644  -5.0607  -5.0578
    -5.0517  -5.0471  -5.0401  -5.0351  -5.0290  -5.0242  -5.0226  -5.0133
    -4.2041  -3.9829  -3.9576  -3.7342  -3.6635  -3.4467  -3.3834  -3.1683
    -0.6406  -0.5769  -0.5590  -0.4802  -0.3595  -0.2407  -0.2002  -0.1685
    -0.0347  -0.0111   0.0349   0.1486   0.3368   0.3809   0.4333   0.4797
     0.5421   0.5717   0.6023   0.6307   0.6621   0.6794   0.6992   0.7695
     0.7800   0.8678   0.9070   0.9385   0.9791   1.0464   1.0861   1.1266
     1.1486   1.1824   1.2119   1.2548   1.2978   1.3121   1.3407   1.3530
     1.4058   1.4635   1.4881   1.5097   1.5475   1.5687   1.5791   1.6075
     1.6153   1.6377   1.6721   1.6904   1.7271   1.7431   1.7547   1.7799
     1.7949   1.8495   1.8661   1.8920   1.9153   1.9564   1.9668   2.0031
     2.0386   2.0798   2.0962   2.1681   2.2888   2.3869   2.4895   2.5697

          k =-0.3750-0.3750-0.1250 (132616 PWs)   bands (ev):

   -18.6087 -18.4911 -18.4807 -18.3932 -18.3469 -18.3424 -18.3349 -18.3258
   -18.3171 -18.2936 -18.2733 -18.2706 -18.2619 -18.2615 -18.2612 -18.2527
   -18.2492 -18.2488 -18.2450 -18.2423 -18.2377 -18.2372 -18.2341 -18.2172
   -18.2080 -18.2032 -18.2004 -18.1994 -18.1921 -18.1892 -18.1882 -18.1794
   -18.1759 -18.1740 -18.1731 -18.1714 -18.1653 -18.1650 -18.1582 -18.1503
   -18.1491 -18.1452 -18.1427 -18.1410 -18.1357 -18.1311 -18.1303 -18.1250
    -9.4404  -9.3708  -9.2905  -9.2076  -9.1348  -9.0798  -9.0592  -9.0268
    -8.9985  -8.9660  -8.9401  -8.9109  -8.8463  -8.8301  -8.8197  -8.7936
    -8.7758  -8.7262  -8.7005  -8.6885  -8.6492  -8.6225  -8.5916  -8.5603
    -5.3664  -5.3577  -5.3503  -5.2529  -5.2498  -5.2460  -5.2432  -5.2374
    -5.2294  -5.1679  -5.1537  -5.1437  -5.0716  -5.0647  -5.0607  -5.0576
    -5.0511  -5.0477  -5.0400  -5.0350  -5.0293  -5.0244  -5.0221  -5.0133
    -4.2030  -3.9895  -3.9509  -3.7391  -3.6585  -3.4417  -3.3948  -3.1625
    -0.6366  -0.5821  -0.5633  -0.4799  -0.3562  -0.2786  -0.1917  -0.1175
    -0.0779  -0.0220   0.0784   0.1637   0.3228   0.3677   0.4277   0.5086
     0.5465   0.5603   0.5918   0.6449   0.6645   0.6810   0.7081   0.7300
     0.7899   0.8586   0.9085   0.9652   0.9878   1.0158   1.0895   1.1124
     1.1517   1.1669   1.2152   1.2787   1.2933   1.3274   1.3382   1.3553
     1.4001   1.4469   1.4677   1.5106   1.5506   1.5800   1.5855   1.6063
     1.6228   1.6347   1.6828   1.6908   1.7122   1.7386   1.7544   1.7934
     1.8035   1.8344   1.8500   1.8986   1.9320   1.9685   1.9880   2.0066
     2.0287   2.0466   2.0928   2.1819   2.2686   2.3924   2.4651   2.6093

          k = 0.3750 0.3750-0.1250 (132616 PWs)   bands (ev):

   -18.6087 -18.4911 -18.4807 -18.3932 -18.3469 -18.3424 -18.3349 -18.3258
   -18.3171 -18.2936 -18.2733 -18.2706 -18.2619 -18.2615 -18.2612 -18.2527
   -18.2492 -18.2488 -18.2450 -18.2423 -18.2377 -18.2372 -18.2341 -18.2172
   -18.2080 -18.2032 -18.2004 -18.1994 -18.1920 -18.1892 -18.1882 -18.1794
   -18.1759 -18.1740 -18.1731 -18.1714 -18.1653 -18.1650 -18.1582 -18.1503
   -18.1491 -18.1452 -18.1427 -18.1410 -18.1357 -18.1311 -18.1303 -18.1250
    -9.4406  -9.3709  -9.2900  -9.2064  -9.1339  -9.0896  -9.0550  -9.0231
    -8.9978  -8.9636  -8.9457  -8.9090  -8.8487  -8.8244  -8.8180  -8.7990
    -8.7744  -8.7300  -8.6965  -8.6898  -8.6501  -8.6211  -8.5914  -8.5609
    -5.3665  -5.3577  -5.3503  -5.2531  -5.2506  -5.2448  -5.2429  -5.2378
    -5.2296  -5.1680  -5.1537  -5.1436  -5.0714  -5.0645  -5.0608  -5.0578
    -5.0517  -5.0472  -5.0399  -5.0351  -5.0291  -5.0244  -5.0224  -5.0131
    -4.2042  -3.9879  -3.9528  -3.7348  -3.6582  -3.4400  -3.3995  -3.1631
    -0.6216  -0.5908  -0.5567  -0.4758  -0.3569  -0.2695  -0.1981  -0.1380
    -0.1030  -0.0164   0.0819   0.1613   0.3202   0.3742   0.4398   0.5014
     0.5453   0.5775   0.6064   0.6204   0.6542   0.6824   0.7198   0.7401
     0.7802   0.8664   0.9173   0.9536   0.9935   1.0153   1.0777   1.0996
     1.1564   1.1828   1.2243   1.2752   1.2893   1.3041   1.3440   1.3635
     1.4285   1.4452   1.4925   1.5283   1.5368   1.5466   1.5739   1.6036
     1.6107   1.6543   1.6657   1.6908   1.7273   1.7389   1.7588   1.7955
     1.8076   1.8342   1.8404   1.8938   1.9319   1.9477   1.9778   2.0008
     2.0375   2.0524   2.0910   2.1988   2.2953   2.3875   2.4524   2.5959

          k =-0.3750 0.3750 0.1250 (132616 PWs)   bands (ev):

   -18.6087 -18.4911 -18.4807 -18.3932 -18.3469 -18.3424 -18.3349 -18.3258
   -18.3171 -18.2936 -18.2733 -18.2706 -18.2619 -18.2615 -18.2612 -18.2527
   -18.2492 -18.2488 -18.2450 -18.2423 -18.2377 -18.2372 -18.2341 -18.2172
   -18.2080 -18.2032 -18.2004 -18.1994 -18.1920 -18.1892 -18.1882 -18.1794
   -18.1759 -18.1740 -18.1731 -18.1714 -18.1653 -18.1650 -18.1582 -18.1503
   -18.1491 -18.1452 -18.1427 -18.1410 -18.1357 -18.1311 -18.1303 -18.1250
    -9.4404  -9.3716  -9.2878  -9.2126  -9.1207  -9.0952  -9.0588  -9.0225
    -9.0029  -8.9575  -8.9446  -8.9097  -8.8493  -8.8308  -8.8171  -8.7971
    -8.7680  -8.7286  -8.7064  -8.6862  -8.6491  -8.6212  -8.5906  -8.5612
    -5.3665  -5.3578  -5.3503  -5.2531  -5.2506  -5.2448  -5.2428  -5.2379
    -5.2296  -5.1679  -5.1538  -5.1436  -5.0714  -5.0648  -5.0605  -5.0576
    -5.0512  -5.0477  -5.0403  -5.0351  -5.0290  -5.0240  -5.0227  -5.0131
    -4.2050  -3.9815  -3.9577  -3.7333  -3.6640  -3.4451  -3.3867  -3.1675
    -0.6218  -0.5812  -0.5587  -0.4910  -0.3617  -0.2464  -0.1999  -0.1705
    -0.0376  -0.0164   0.0440   0.1402   0.3500   0.3867   0.4324   0.4888
     0.5275   0.5665   0.6141   0.6274   0.6563   0.6761   0.7080   0.7526
     0.8053   0.8537   0.9121   0.9678   0.9861   1.0358   1.0518   1.1136
     1.1344   1.1771   1.2059   1.2781   1.3077   1.3217   1.3528   1.3744
     1.3889   1.4513   1.4996   1.5242   1.5462   1.5595   1.5801   1.6027
     1.6253   1.6433   1.6635   1.6802   1.7234   1.7369   1.7663   1.7798
     1.8000   1.8279   1.8608   1.8928   1.9247   1.9559   1.9621   2.0075
     2.0300   2.0837   2.1013   2.1717   2.2862   2.3754   2.4872   2.5814

          k =-0.3750-0.3750 0.3750 (132612 PWs)   bands (ev):

   -18.6087 -18.4911 -18.4807 -18.3932 -18.3469 -18.3424 -18.3349 -18.3258
   -18.3171 -18.2936 -18.2733 -18.2706 -18.2619 -18.2615 -18.2612 -18.2527
   -18.2492 -18.2488 -18.2450 -18.2423 -18.2377 -18.2372 -18.2341 -18.2172
   -18.2080 -18.2032 -18.2004 -18.1994 -18.1920 -18.1892 -18.1882 -18.1794
   -18.1759 -18.1740 -18.1731 -18.1714 -18.1653 -18.1650 -18.1582 -18.1503
   -18.1491 -18.1452 -18.1427 -18.1410 -18.1357 -18.1311 -18.1303 -18.1250
    -9.4343  -9.3657  -9.2817  -9.2082  -9.1491  -9.1014  -9.0860  -9.0286
    -9.0079  -8.9454  -8.9415  -8.8885  -8.8522  -8.8191  -8.8077  -8.7885
    -8.7603  -8.7274  -8.6992  -8.6923  -8.6612  -8.6242  -8.5939  -8.5651
    -5.3664  -5.3577  -5.3503  -5.2549  -5.2499  -5.2453  -5.2421  -5.2372
    -5.2296  -5.1680  -5.1536  -5.1436  -5.0709  -5.0648  -5.0610  -5.0578
    -5.0531  -5.0474  -5.0395  -5.0352  -5.0286  -5.0242  -5.0221  -5.0130
    -4.0933  -3.8870  -3.8636  -3.7834  -3.6502  -3.5884  -3.5415  -3.3463
    -0.4048  -0.3806  -0.3518  -0.2636  -0.2310  -0.1947  -0.1523  -0.1014
    -0.0346   0.0334   0.0771   0.2286   0.3004   0.3688   0.4316   0.4551
     0.4820   0.5083   0.5149   0.5532   0.5792   0.6017   0.6549   0.6823
     0.8452   0.8671   0.9140   0.9439   0.9584   0.9881   1.0084   1.0647
     1.1013   1.1379   1.1573   1.1806   1.2201   1.2392   1.2861   1.2985
     1.3897   1.4354   1.4669   1.4962   1.5384   1.5812   1.6004   1.6347
     1.6659   1.6825   1.7125   1.7267   1.7468   1.7764   1.7864   1.8126
     1.8217   1.8530   1.8730   1.8872   1.9014   1.9402   1.9578   1.9836
     2.0148   2.0312   2.0480   2.0792   2.1234   2.1942   2.2688   2.3129

          k =-0.3750 0.3750-0.3750 (132612 PWs)   bands (ev):

   -18.6087 -18.4911 -18.4807 -18.3932 -18.3469 -18.3424 -18.3349 -18.3258
   -18.3171 -18.2936 -18.2733 -18.2706 -18.2619 -18.2615 -18.2612 -18.2527
   -18.2492 -18.2488 -18.2450 -18.2423 -18.2377 -18.2372 -18.2341 -18.2172
   -18.2080 -18.2032 -18.2004 -18.1994 -18.1920 -18.1892 -18.1882 -18.1794
   -18.1759 -18.1740 -18.1731 -18.1714 -18.1653 -18.1650 -18.1582 -18.1503
   -18.1491 -18.1452 -18.1427 -18.1410 -18.1357 -18.1311 -18.1303 -18.1250
    -9.4342  -9.3662  -9.2809  -9.2044  -9.1550  -9.1139  -9.0656  -9.0331
    -9.0099  -8.9480  -8.9367  -8.8905  -8.8516  -8.8209  -8.8032  -8.7921
    -8.7616  -8.7223  -8.7058  -8.6885  -8.6601  -8.6274  -8.5925  -8.5649
    -5.3665  -5.3577  -5.3503  -5.2546  -5.2494  -5.2461  -5.2425  -5.2369
    -5.2294  -5.1679  -5.1536  -5.1436  -5.0711  -5.0646  -5.0609  -5.0577
    -5.0531  -5.0473  -5.0397  -5.0351  -5.0284  -5.0240  -5.0223  -5.0132
    -4.0915  -3.8970  -3.8581  -3.7779  -3.6571  -3.5990  -3.5217  -3.3511
    -0.4608  -0.3881  -0.2998  -0.2680  -0.2250  -0.1760  -0.1351  -0.0815
    -0.0283   0.0182   0.0841   0.2167   0.2654   0.3707   0.3958   0.4200
     0.4781   0.5087   0.5388   0.5559   0.5898   0.6352   0.6491   0.7089
     0.8291   0.8614   0.9151   0.9249   0.9681   0.9884   1.0449   1.0828
     1.1119   1.1298   1.1412   1.1538   1.1975   1.2321   1.2814   1.3181
     1.3848   1.4497   1.4708   1.4832   1.5485   1.5745   1.6146   1.6419
     1.6460   1.6844   1.7131   1.7357   1.7519   1.7611   1.7887   1.8068
     1.8409   1.8589   1.8788   1.9021   1.9151   1.9298   1.9492   1.9735
     1.9956   2.0357   2.0634   2.0758   2.1093   2.1799   2.2509   2.3443

          k = 0.3750-0.3750-0.3750 (132612 PWs)   bands (ev):

   -18.6087 -18.4911 -18.4807 -18.3932 -18.3469 -18.3424 -18.3349 -18.3258
   -18.3171 -18.2936 -18.2733 -18.2706 -18.2619 -18.2615 -18.2612 -18.2527
   -18.2492 -18.2488 -18.2450 -18.2423 -18.2377 -18.2372 -18.2341 -18.2172
   -18.2080 -18.2032 -18.2004 -18.1994 -18.1920 -18.1892 -18.1882 -18.1794
   -18.1759 -18.1740 -18.1731 -18.1714 -18.1653 -18.1650 -18.1582 -18.1503
   -18.1491 -18.1452 -18.1427 -18.1410 -18.1357 -18.1311 -18.1303 -18.1250
    -9.4341  -9.3664  -9.2805  -9.2102  -9.1481  -9.1041  -9.0770  -9.0377
    -9.0077  -8.9456  -8.9355  -8.8917  -8.8531  -8.8205  -8.8051  -8.7889
    -8.7599  -8.7189  -8.7118  -8.6889  -8.6608  -8.6248  -8.5932  -8.5651
    -5.3664  -5.3577  -5.3503  -5.2549  -5.2500  -5.2453  -5.2421  -5.2373
    -5.2295  -5.1679  -5.1537  -5.1436  -5.0709  -5.0650  -5.0607  -5.0576
    -5.0528  -5.0478  -5.0399  -5.0351  -5.0284  -5.0238  -5.0223  -5.0130
    -4.0936  -3.8965  -3.8478  -3.7871  -3.6640  -3.5718  -3.5439  -3.3489
    -0.4220  -0.3640  -0.3323  -0.3013  -0.2601  -0.1635  -0.1082  -0.1018
    -0.0255   0.0275   0.0710   0.2020   0.3189   0.3394   0.4094   0.4400
     0.4974   0.5119   0.5254   0.5453   0.5917   0.6198   0.6521   0.6835
     0.8383   0.8844   0.9061   0.9345   0.9653   0.9951   1.0146   1.0610
     1.0901   1.1103   1.1587   1.1895   1.2291   1.2412   1.2805   1.3150
     1.3818   1.4410   1.4732   1.5019   1.5399   1.5896   1.6163   1.6331
     1.6574   1.6819   1.7105   1.7283   1.7384   1.7559   1.7855   1.7960
     1.8200   1.8505   1.8799   1.8915   1.9100   1.9446   1.9673   1.9766
     1.9937   2.0203   2.0642   2.0907   2.1511   2.1840   2.2300   2.3351

     highest occupied level (ev):     3.1718

!    total energy              =   -2256.31005707 Ry
     estimated scf accuracy    <          5.3E-11 Ry

     The total energy is the sum of the following terms:
     one-electron contribution =    -992.65374803 Ry
     hartree contribution      =     624.42655100 Ry
     xc contribution           =    -647.50677226 Ry
     ewald contribution        =   -1240.57608779 Ry

     convergence has been achieved in  15 iterations

     Forces acting on atoms (cartesian axes, Ry/au):

     atom    1 type  1   force =     0.00443553    0.00088488   -0.00361660
     atom    2 type  2   force =    -0.00035335    0.00474728    0.00670384
     atom    3 type  3   force =     0.00911189    0.00114454   -0.00050475
     atom    4 type  3   force =    -0.00104704   -0.00291023   -0.00346196
     atom    5 type  3   force =    -0.00210898   -0.00153379   -0.00034236
     atom    6 type  1   force =    -0.00210030    0.00325076   -0.00145820
     atom    7 type  2   force =     0.00430780    0.00702904   -0.01239457
     atom    8 type  3   force =    -0.00068709   -0.00507739   -0.00160740
     atom    9 type  3   force =    -0.00281425    0.00049961    0.00666407
     atom   10 type  3   force =    -0.00696276   -0.00375468    0.00178525
     atom   11 type  1   force =    -0.00196759   -0.00164137   -0.00177337
     atom   12 type  2   force =    -0.00582290   -0.00329115   -0.00526301
     atom   13 type  3   force =    -0.00645752   -0.00011156    0.00104808
     atom   14 type  3   force =     0.00337400   -0.00116977    0.01075246
     atom   15 type  3   force =     0.00378509    0.00709612    0.00155651
     atom   16 type  1   force =    -0.00124092   -0.00220173    0.00167254
     atom   17 type  2   force =     0.01479323   -0.01514718    0.00345539
     atom   18 type  3   force =     0.00134425    0.00769412   -0.00525461
     atom   19 type  3   force =    -0.00341520    0.00070020   -0.00564010
     atom   20 type  3   force =     0.00409545    0.00979051   -0.00346246
     atom   21 type  1   force =     0.01333801    0.01308703   -0.00012160
     atom   22 type  2   force =     0.01234508    0.00171143    0.01135404
     atom   23 type  3   force =     0.00144427    0.00242707    0.00599263
     atom   24 type  3   force =    -0.02104212   -0.02582126   -0.00737964
     atom   25 type  3   force =    -0.00105633    0.00443659   -0.00997620
     atom   26 type  1   force =     0.00022911    0.00078662    0.00096778
     atom   27 type  2   force =    -0.01472546    0.00988580   -0.02029948
     atom   28 type  3   force =     0.01749370    0.00023308   -0.00269121
     atom   29 type  3   force =    -0.00785454    0.00088973    0.02216066
     atom   30 type  3   force =     0.00570811   -0.00244486    0.00035792
     atom   31 type  1   force =     0.00012858    0.00121864   -0.00316598
     atom   32 type  2   force =     0.00316063   -0.00474500   -0.00763046
     atom   33 type  3   force =     0.00367884   -0.00184601    0.00578913
     atom   34 type  3   force =     0.00149779    0.00210003   -0.01569759
     atom   35 type  3   force =     0.00134594    0.00199511    0.00400824
     atom   36 type  1   force =    -0.00484321    0.00208450    0.01260466
     atom   37 type  2   force =    -0.01291545   -0.00527249    0.01216229
     atom   38 type  3   force =     0.00201170   -0.00225665   -0.00398870
     atom   39 type  3   force =    -0.00678765    0.00096153    0.00891976
     atom   40 type  3   force =    -0.00342632   -0.00542909   -0.00222499

     Total force =     0.079982     Total SCF correction =     0.000035


     Computing stress (Cartesian axis) and pressure

          total   stress  (Ry/bohr**3)                   (kbar)     P=       -7.63
  -0.00005054   0.00000296  -0.00000337           -7.44        0.44       -0.50
   0.00000296  -0.00005476  -0.00000230            0.44       -8.06       -0.34
  -0.00000337  -0.00000230  -0.00005032           -0.50       -0.34       -7.40

 
     init_run     :     20.18s CPU     17.34s WALL (       1 calls)
     electrons    :    200.82s CPU    210.89s WALL (       1 calls)
     forces       :      8.88s CPU      3.94s WALL (       1 calls)
     stress       :     31.72s CPU     31.07s WALL (       1 calls)

     Called by init_run:
     wfcinit      :     12.28s CPU     14.27s WALL (       1 calls)
                                       14.27s GPU  (       1 calls)
     potinit      :      4.53s CPU      1.40s WALL (       1 calls)
     hinit0       :      2.78s CPU      0.99s WALL (       1 calls)

     Called by electrons:
     c_bands      :    119.51s CPU    168.29s WALL (      16 calls)
     sum_band     :     22.04s CPU     21.12s WALL (      16 calls)
                                       21.11s GPU  (      16 calls)
     v_of_rho     :     54.88s CPU     16.72s WALL (      16 calls)
     mix_rho      :      6.51s CPU      5.03s WALL (      16 calls)

     Called by c_bands:
     init_us_2    :      2.24s CPU      3.01s WALL (     280 calls)
                                        3.01s GPU  (     280 calls)
     cegterg      :     79.87s CPU    126.05s WALL (     128 calls)

     Called by *egterg:
     cdiaghg      :     13.79s CPU     25.55s WALL (     634 calls)
                                       25.52s GPU  (     634 calls)
     h_psi        :     54.12s CPU     72.47s WALL (     650 calls)
                                       72.04s GPU  (     650 calls)
     g_psi        :      0.00s CPU      0.35s WALL (     514 calls)
                                        0.34s GPU  (     514 calls)

     Called by h_psi:
     h_psi:calbec :      0.33s CPU      9.80s WALL (     650 calls)
                                        9.79s GPU  (     650 calls)
     vloc_psi     :     39.39s CPU     52.82s WALL (     650 calls)
                                       51.92s GPU  (     650 calls)
     add_vuspsi   :      0.33s CPU      9.77s WALL (     650 calls)
                                        9.76s GPU  (     650 calls)

     General routines
     calbec       :      0.33s CPU      0.40s WALL (     690 calls)
     fft          :     25.56s CPU      6.55s WALL (     185 calls)
                                        0.00s GPU  (       6 calls)
     ffts         :      2.63s CPU      0.68s WALL (      16 calls)
     fftw         :      0.60s CPU     61.37s WALL (   10286 calls)
                                       45.82s GPU  (   10286 calls)
 
     Parallel routines
 
     PWSCF        :   4m22.26s CPU   4m23.97s WALL

 
   This run was terminated on:  21: 7:26  22Apr2021            

=------------------------------------------------------------------------------=
   JOB DONE.
=------------------------------------------------------------------------------=
