
     Program PWSCF v.6.7MaX starts on 22Apr2021 at 21:15:29 

     This program is part of the open-source Quantum ESPRESSO suite
     for quantum simulation of materials; please cite
         "P. Giannozzi et al., J. Phys.:Condens. Matter 21 395502 (2009);
         "P. Giannozzi et al., J. Phys.:Condens. Matter 29 465901 (2017);
         "P. Giannozzi et al., J. Chem. Phys. 152 154105 (2020);
          URL http://www.quantum-espresso.org", 
     in publications or presentations arising from this work. More details at
     http://www.quantum-espresso.org/quote

     Parallel version (MPI & OpenMP), running on      16 processor cores
     Number of MPI processes:                 4
     Threads/MPI process:                     4

     MPI processes distributed on     1 nodes
     K-points division:     npool     =       4
     Reading input from ESP_12.pwi
Warning: card &CELL ignored
Warning: card / ignored

     Current dimensions of program PWSCF are:
     Max number of different atomic species (ntypx) = 10
     Max number of k-points (npk) =  40000
     Max angular momentum in pseudopotentials (lmaxx) =  3
     Message from routine read_pp_mesh:
     mesh size missing, using the one in header
     Message from routine read_pp_mesh:
     mesh size missing, using the one in header
     Message from routine read_pp_mesh:
     mesh size missing, using the one in header

     Subspace diagonalization in iterative solution of the eigenvalue problem:
     a serial algorithm will be used

 
     G-vector sticks info
     --------------------
     sticks:   dense  smooth     PW     G-vecs:    dense   smooth      PW
     Sum       12589   12589   3289              1061107  1061107  140905
 
     Using Slab Decomposition
 


     bravais-lattice index     =            0
     lattice parameter (alat)  =      23.7585  a.u.
     unit-cell volume          =   13410.8736 (a.u.)^3
     number of atoms/cell      =           40
     number of atomic types    =            3
     number of electrons       =       352.00
     number of Kohn-Sham states=          176
     kinetic-energy cutoff     =      70.0000  Ry
     charge density cutoff     =     280.0000  Ry
     scf convergence threshold =      1.0E-10
     mixing beta               =       0.7000
     number of iterations used =            8  plain     mixing
     Exchange-correlation= PBESOL
                           (   1   4  10   8   0   0   0)

     GPU acceleration is ACTIVE.


     celldm(1)=  23.758500  celldm(2)=   0.000000  celldm(3)=   0.000000
     celldm(4)=   0.000000  celldm(5)=   0.000000  celldm(6)=   0.000000

     crystal axes: (cart. coord. in units of alat)
               a(1) = (   1.000000   0.000000   0.000000 )  
               a(2) = (   0.000000   1.000000   0.000000 )  
               a(3) = (   0.000000   0.000000   1.000000 )  

     reciprocal axes: (cart. coord. in units 2 pi/alat)
               b(1) = (  1.000000  0.000000  0.000000 )  
               b(2) = (  0.000000  1.000000  0.000000 )  
               b(3) = (  0.000000  0.000000  1.000000 )  


     PseudoPot. # 1 for Cs read from file:
     /m100/home/userexternal/lmonacel/espresso/pseudo/Cs-nc-pbesol.upf
     MD5 check sum: 9d2f2206a14dc5b3b3f3fbfae186bed4
     Pseudo is Norm-conserving + core correction, Zval =  9.0
     Generated using ONCVPSP code by D. R. Hamann
     Using radial grid of 2384 points,  8 beta functions with: 
                l(1) =   0
                l(2) =   0
                l(3) =   1
                l(4) =   1
                l(5) =   2
                l(6) =   2
                l(7) =   3
                l(8) =   3

     PseudoPot. # 2 for Sn read from file:
     /m100/home/userexternal/lmonacel/espresso/pseudo/Sn-nc-pbesol.upf
     MD5 check sum: c2995d571af40102bfea7461443d92cf
     Pseudo is Norm-conserving + core correction, Zval = 14.0
     Generated using ONCVPSP code by D. R. Hamann
     Using radial grid of 1628 points,  6 beta functions with: 
                l(1) =   0
                l(2) =   0
                l(3) =   1
                l(4) =   1
                l(5) =   2
                l(6) =   2

     PseudoPot. # 3 for I  read from file:
     /m100/home/userexternal/lmonacel/espresso/pseudo/I-nc-pbesol.upf
     MD5 check sum: 80ed5ceb2eb9c553cfb6760a299d9c5b
     Pseudo is Norm-conserving + core correction, Zval =  7.0
     Generated using ONCVPSP code by D. R. Hamann
     Using radial grid of 1182 points,  6 beta functions with: 
                l(1) =   0
                l(2) =   0
                l(3) =   1
                l(4) =   1
                l(5) =   2
                l(6) =   2

     atomic species   valence    mass     pseudopotential
        Cs             9.00   132.90545     Cs( 1.00)
        Sn            14.00   118.71000     Sn( 1.00)
        I              7.00   126.90447     I ( 1.00)

     No symmetry found



   Cartesian axes

     site n.     atom                  positions (alat units)
         1           Cs  tau(   1) = (   0.2591225   0.2593948   0.2469864  )
         2           Sn  tau(   2) = (   0.0176819  -0.0130776   0.0011504  )
         3           I   tau(   3) = (   0.2669492   0.0251568   0.0245065  )
         4           I   tau(   4) = (  -0.0148374  -0.0192615   0.2418135  )
         5           I   tau(   5) = (   0.0052224   0.2596703   0.0046379  )
         6           Cs  tau(   6) = (   0.2696945   0.2548809   0.7677400  )
         7           Sn  tau(   7) = (   0.0008144   0.0125648   0.4936772  )
         8           I   tau(   8) = (   0.2452202  -0.0323422   0.5101603  )
         9           I   tau(   9) = (   0.0339397   0.0290592   0.7343211  )
        10           I   tau(  10) = (   0.0179085   0.2408375   0.4909943  )
        11           Cs  tau(  11) = (   0.2545038   0.7268058   0.2544537  )
        12           Sn  tau(  12) = (  -0.0165408   0.4800334  -0.0053907  )
        13           I   tau(  13) = (   0.2495824   0.5101852  -0.0289414  )
        14           I   tau(  14) = (   0.0023445   0.5171657   0.2335667  )
        15           I   tau(  15) = (  -0.0053587   0.7463779  -0.0307143  )
        16           Cs  tau(  16) = (   0.2634433   0.6995137   0.7197495  )
        17           Sn  tau(  17) = (   0.0016675   0.5054963   0.5152227  )
        18           I   tau(  18) = (   0.2458330   0.5166090   0.4984743  )
        19           I   tau(  19) = (  -0.0151776   0.4667481   0.7400510  )
        20           I   tau(  20) = (  -0.0101281   0.7649122   0.5494910  )
        21           Cs  tau(  21) = (   0.7589164   0.2538330   0.2058999  )
        22           Sn  tau(  22) = (   0.4957203  -0.0011990   0.0226954  )
        23           I   tau(  23) = (   0.7460396  -0.0039713   0.0072703  )
        24           I   tau(  24) = (   0.5285970  -0.0051710   0.2664197  )
        25           I   tau(  25) = (   0.5001746   0.2643024   0.0357764  )
        26           Cs  tau(  26) = (   0.7260785   0.2219752   0.7146885  )
        27           Sn  tau(  27) = (   0.4800791   0.0016542   0.5232781  )
        28           I   tau(  28) = (   0.7459823   0.0154105   0.4914219  )
        29           I   tau(  29) = (   0.4752255  -0.0018353   0.7810346  )
        30           I   tau(  30) = (   0.4850084   0.2418343   0.4954480  )
        31           Cs  tau(  31) = (   0.7476591   0.7672569   0.2416116  )
        32           Sn  tau(  32) = (   0.4960468   0.4909678  -0.0042688  )
        33           I   tau(  33) = (   0.7472604   0.4967248   0.0062594  )
        34           I   tau(  34) = (   0.4702281   0.4978520   0.2497033  )
        35           I   tau(  35) = (   0.4884477   0.7593303  -0.0057605  )
        36           Cs  tau(  36) = (   0.7599188   0.8007391   0.7306451  )
        37           Sn  tau(  37) = (   0.4834540   0.5058112   0.5009059  )
        38           I   tau(  38) = (   0.7428389   0.4759817   0.5105848  )
        39           I   tau(  39) = (   0.5222047   0.5220361   0.7491687  )
        40           I   tau(  40) = (   0.5237220   0.7453281   0.5239104  )

     number of k points=    32
                       cart. coord. in units 2pi/alat
        k(    1) = (   0.1250000   0.1250000   0.1250000), wk =   0.0625000
        k(    2) = (   0.1250000   0.1250000   0.3750000), wk =   0.0625000
        k(    3) = (   0.1250000   0.3750000   0.3750000), wk =   0.0625000
        k(    4) = (   0.3750000   0.3750000   0.3750000), wk =   0.0625000
        k(    5) = (  -0.1250000  -0.1250000   0.1250000), wk =   0.0625000
        k(    6) = (  -0.1250000   0.1250000  -0.1250000), wk =   0.0625000
        k(    7) = (   0.1250000  -0.1250000  -0.1250000), wk =   0.0625000
        k(    8) = (  -0.1250000  -0.1250000   0.3750000), wk =   0.0625000
        k(    9) = (  -0.1250000   0.1250000  -0.3750000), wk =   0.0625000
        k(   10) = (   0.1250000  -0.1250000  -0.3750000), wk =   0.0625000
        k(   11) = (   0.3750000  -0.1250000   0.1250000), wk =   0.0625000
        k(   12) = (  -0.3750000  -0.1250000  -0.1250000), wk =   0.0625000
        k(   13) = (   0.3750000   0.1250000  -0.1250000), wk =   0.0625000
        k(   14) = (  -0.3750000   0.1250000   0.1250000), wk =   0.0625000
        k(   15) = (  -0.1250000   0.3750000   0.1250000), wk =   0.0625000
        k(   16) = (  -0.1250000  -0.3750000  -0.1250000), wk =   0.0625000
        k(   17) = (   0.1250000   0.3750000  -0.1250000), wk =   0.0625000
        k(   18) = (   0.1250000  -0.3750000   0.1250000), wk =   0.0625000
        k(   19) = (  -0.1250000  -0.3750000   0.3750000), wk =   0.0625000
        k(   20) = (  -0.1250000   0.3750000  -0.3750000), wk =   0.0625000
        k(   21) = (   0.1250000  -0.3750000  -0.3750000), wk =   0.0625000
        k(   22) = (   0.3750000   0.1250000  -0.3750000), wk =   0.0625000
        k(   23) = (  -0.3750000  -0.1250000  -0.3750000), wk =   0.0625000
        k(   24) = (   0.3750000  -0.1250000   0.3750000), wk =   0.0625000
        k(   25) = (  -0.3750000   0.1250000   0.3750000), wk =   0.0625000
        k(   26) = (   0.3750000  -0.3750000   0.1250000), wk =   0.0625000
        k(   27) = (  -0.3750000  -0.3750000  -0.1250000), wk =   0.0625000
        k(   28) = (   0.3750000   0.3750000  -0.1250000), wk =   0.0625000
        k(   29) = (  -0.3750000   0.3750000   0.1250000), wk =   0.0625000
        k(   30) = (  -0.3750000  -0.3750000   0.3750000), wk =   0.0625000
        k(   31) = (  -0.3750000   0.3750000  -0.3750000), wk =   0.0625000
        k(   32) = (   0.3750000  -0.3750000  -0.3750000), wk =   0.0625000

     Dense  grid:  1061107 G-vectors     FFT dimensions: ( 128, 128, 128)

     Estimated max dynamical RAM per process >       6.82 GB

     Estimated total dynamical RAM >      27.27 GB

     Initial potential from superposition of free atoms

     starting charge  351.69472, renormalised to  352.00000
     Starting wfcs are  208 randomized atomic wfcs

     total cpu time spent up to now is       17.7 secs

     Self-consistent Calculation

     iteration #  1     ecut=    70.00 Ry     beta= 0.70
     Davidson diagonalization with overlap
     ethr =  1.00E-02,  avg # of iterations =  2.0

     Threshold (ethr) on eigenvalues was too large:
     Diagonalizing with lowered threshold

     Davidson diagonalization with overlap
     ethr =  2.17E-04,  avg # of iterations =  4.0

     total cpu time spent up to now is       38.6 secs

     total energy              =   -2256.00853911 Ry
     estimated scf accuracy    <       0.65789581 Ry

     iteration #  2     ecut=    70.00 Ry     beta= 0.70
     Davidson diagonalization with overlap
     ethr =  1.87E-04,  avg # of iterations =  3.3

     total cpu time spent up to now is       51.6 secs

     total energy              =   -2256.19328311 Ry
     estimated scf accuracy    <       0.36515517 Ry

     iteration #  3     ecut=    70.00 Ry     beta= 0.70
     Davidson diagonalization with overlap
     ethr =  1.04E-04,  avg # of iterations =  3.1

     total cpu time spent up to now is       63.4 secs

     total energy              =   -2256.26679308 Ry
     estimated scf accuracy    <       0.04683900 Ry

     iteration #  4     ecut=    70.00 Ry     beta= 0.70
     Davidson diagonalization with overlap
     ethr =  1.33E-05,  avg # of iterations =  3.7

     total cpu time spent up to now is       75.8 secs

     total energy              =   -2256.27963102 Ry
     estimated scf accuracy    <       0.00332776 Ry

     iteration #  5     ecut=    70.00 Ry     beta= 0.70
     Davidson diagonalization with overlap
     ethr =  9.45E-07,  avg # of iterations =  4.1

     total cpu time spent up to now is       88.9 secs

     total energy              =   -2256.28036307 Ry
     estimated scf accuracy    <       0.00120647 Ry

     iteration #  6     ecut=    70.00 Ry     beta= 0.70
     Davidson diagonalization with overlap
     ethr =  3.43E-07,  avg # of iterations =  3.0

     total cpu time spent up to now is      101.0 secs

     total energy              =   -2256.28057697 Ry
     estimated scf accuracy    <       0.00016034 Ry

     iteration #  7     ecut=    70.00 Ry     beta= 0.70
     Davidson diagonalization with overlap
     ethr =  4.56E-08,  avg # of iterations =  4.3

     total cpu time spent up to now is      114.4 secs

     total energy              =   -2256.28062059 Ry
     estimated scf accuracy    <       0.00002128 Ry

     iteration #  8     ecut=    70.00 Ry     beta= 0.70
     Davidson diagonalization with overlap
     ethr =  6.05E-09,  avg # of iterations =  4.6

     total cpu time spent up to now is      128.2 secs

     total energy              =   -2256.28062799 Ry
     estimated scf accuracy    <       0.00000555 Ry

     iteration #  9     ecut=    70.00 Ry     beta= 0.70
     Davidson diagonalization with overlap
     ethr =  1.58E-09,  avg # of iterations =  4.2

     total cpu time spent up to now is      141.8 secs

     total energy              =   -2256.28062988 Ry
     estimated scf accuracy    <       0.00000101 Ry

     iteration # 10     ecut=    70.00 Ry     beta= 0.70
     Davidson diagonalization with overlap
     ethr =  2.88E-10,  avg # of iterations =  3.8

     total cpu time spent up to now is      155.1 secs

     total energy              =   -2256.28063019 Ry
     estimated scf accuracy    <       0.00000024 Ry

     iteration # 11     ecut=    70.00 Ry     beta= 0.70
     Davidson diagonalization with overlap
     ethr =  6.91E-11,  avg # of iterations =  3.6

     total cpu time spent up to now is      168.4 secs

     total energy              =   -2256.28063026 Ry
     estimated scf accuracy    <       0.00000004 Ry

     iteration # 12     ecut=    70.00 Ry     beta= 0.70
     Davidson diagonalization with overlap
     ethr =  1.16E-11,  avg # of iterations =  5.2

     total cpu time spent up to now is      184.5 secs

     total energy              =   -2256.28063028 Ry
     estimated scf accuracy    <       0.00000002 Ry

     iteration # 13     ecut=    70.00 Ry     beta= 0.70
     Davidson diagonalization with overlap
     ethr =  5.05E-12,  avg # of iterations =  3.7

     total cpu time spent up to now is      197.6 secs

     total energy              =   -2256.28063029 Ry
     estimated scf accuracy    <          1.9E-09 Ry

     iteration # 14     ecut=    70.00 Ry     beta= 0.70
     Davidson diagonalization with overlap
     ethr =  5.46E-13,  avg # of iterations =  5.5

     total cpu time spent up to now is      213.1 secs

     total energy              =   -2256.28063029 Ry
     estimated scf accuracy    <          1.8E-10 Ry

     iteration # 15     ecut=    70.00 Ry     beta= 0.70
     Davidson diagonalization with overlap
     ethr =  1.00E-13,  avg # of iterations =  5.0

     total cpu time spent up to now is      227.7 secs

     End of self-consistent calculation

          k = 0.1250 0.1250 0.1250 (132670 PWs)   bands (ev):

   -18.5099 -18.5025 -18.4712 -18.4310 -18.3504 -18.3382 -18.3315 -18.3295
   -18.3279 -18.3190 -18.3181 -18.3176 -18.3141 -18.3135 -18.3107 -18.3081
   -18.3037 -18.2993 -18.2985 -18.2925 -18.2889 -18.2877 -18.2866 -18.2795
   -18.2759 -18.2702 -18.2079 -18.2003 -18.1929 -18.1855 -18.1788 -18.1720
   -18.1621 -18.1327 -18.1239 -18.1228 -18.1148 -18.1092 -18.1091 -18.0988
   -18.0903 -18.0866 -18.0827 -18.0717 -18.0598 -18.0451 -18.0418 -18.0384
    -9.6077  -9.4570  -9.3736  -9.2914  -9.2362  -9.1575  -9.1009  -9.0419
    -8.9998  -8.9896  -8.9574  -8.9166  -8.8868  -8.8652  -8.8113  -8.7733
    -8.7571  -8.6970  -8.6562  -8.6438  -8.5703  -8.5543  -8.5467  -8.4282
    -5.2888  -5.2778  -5.2726  -5.2649  -5.2574  -5.2523  -5.2446  -5.2397
    -5.2333  -5.2062  -5.2025  -5.1838  -5.1204  -5.1116  -5.1068  -5.1015
    -5.0961  -5.0793  -5.0396  -5.0028  -4.9962  -4.9902  -4.9781  -4.9673
    -4.4681  -3.9798  -3.9419  -3.8950  -3.4329  -3.3611  -3.3324  -2.7481
    -0.8136  -0.7050  -0.6745  -0.6548  -0.6340  -0.5910  -0.4993  -0.4610
    -0.3956  -0.3411  -0.2686  -0.1789   0.3846   0.4322   0.4950   0.5442
     0.5986   0.6528   0.7334   0.7667   0.7964   0.8671   0.9055   0.9409
     0.9639   1.0066   1.0448   1.0601   1.0850   1.1029   1.1207   1.1757
     1.2000   1.2224   1.2479   1.2698   1.3018   1.3277   1.3598   1.3963
     1.4298   1.4440   1.4685   1.4851   1.5137   1.5407   1.5526   1.5742
     1.5965   1.6366   1.6509   1.6641   1.6857   1.6988   1.7333   1.7637
     1.7865   1.8007   1.8391   2.0099   2.0409   2.0883   2.1003   2.1304
     2.1479   2.1847   2.2333   2.3371   2.6244   2.7595   2.8595   3.1920

          k = 0.1250 0.1250 0.3750 (132608 PWs)   bands (ev):

   -18.5099 -18.5025 -18.4712 -18.4310 -18.3504 -18.3382 -18.3315 -18.3295
   -18.3279 -18.3190 -18.3181 -18.3176 -18.3141 -18.3135 -18.3107 -18.3081
   -18.3037 -18.2993 -18.2985 -18.2925 -18.2889 -18.2877 -18.2866 -18.2795
   -18.2759 -18.2702 -18.2079 -18.2003 -18.1929 -18.1855 -18.1788 -18.1720
   -18.1621 -18.1327 -18.1239 -18.1228 -18.1148 -18.1092 -18.1091 -18.0988
   -18.0903 -18.0866 -18.0827 -18.0717 -18.0598 -18.0451 -18.0418 -18.0384
    -9.6040  -9.4590  -9.3668  -9.2861  -9.2538  -9.1652  -9.0960  -9.0383
    -9.0014  -8.9925  -8.9624  -8.9204  -8.8918  -8.8633  -8.7929  -8.7747
    -8.7585  -8.6802  -8.6525  -8.6409  -8.5787  -8.5623  -8.5483  -8.4298
    -5.2871  -5.2796  -5.2723  -5.2633  -5.2576  -5.2537  -5.2441  -5.2397
    -5.2333  -5.2063  -5.2027  -5.1836  -5.1204  -5.1119  -5.1069  -5.1016
    -5.0958  -5.0794  -5.0396  -5.0030  -4.9962  -4.9901  -4.9782  -4.9671
    -4.3465  -4.1240  -3.8460  -3.7765  -3.6022  -3.5176  -3.2127  -2.9622
    -0.7589  -0.6810  -0.6398  -0.6129  -0.5514  -0.5328  -0.4344  -0.3947
    -0.1290  -0.0941  -0.0189   0.0896   0.3498   0.4109   0.4645   0.4883
     0.5502   0.5908   0.6337   0.6655   0.7119   0.7410   0.7525   0.8126
     0.8415   0.8965   0.9552   0.9962   1.0480   1.0802   1.0945   1.1241
     1.1823   1.2061   1.2761   1.2935   1.3279   1.3446   1.3683   1.3881
     1.4136   1.4487   1.4559   1.4895   1.5265   1.5396   1.5754   1.5927
     1.6223   1.6336   1.6532   1.6819   1.7048   1.7395   1.7644   1.7931
     1.8110   1.8339   1.8814   1.9086   1.9974   2.0187   2.0523   2.0669
     2.1006   2.1147   2.1976   2.2845   2.4090   2.5607   2.7910   2.9432

          k = 0.1250 0.3750 0.3750 (132616 PWs)   bands (ev):

   -18.5099 -18.5025 -18.4712 -18.4310 -18.3504 -18.3382 -18.3315 -18.3295
   -18.3279 -18.3190 -18.3181 -18.3176 -18.3141 -18.3135 -18.3107 -18.3081
   -18.3037 -18.2993 -18.2985 -18.2925 -18.2889 -18.2877 -18.2866 -18.2795
   -18.2759 -18.2702 -18.2079 -18.2003 -18.1929 -18.1855 -18.1788 -18.1720
   -18.1621 -18.1327 -18.1239 -18.1228 -18.1148 -18.1092 -18.1091 -18.0988
   -18.0903 -18.0866 -18.0827 -18.0717 -18.0598 -18.0451 -18.0418 -18.0384
    -9.6021  -9.4516  -9.3652  -9.2914  -9.2648  -9.1582  -9.0962  -9.0631
    -9.0153  -8.9878  -8.9522  -8.9222  -8.8881  -8.8351  -8.7947  -8.7695
    -8.7630  -8.6770  -8.6549  -8.6380  -8.5813  -8.5646  -8.5523  -8.4311
    -5.2880  -5.2787  -5.2723  -5.2636  -5.2574  -5.2529  -5.2441  -5.2398
    -5.2333  -5.2064  -5.2028  -5.1840  -5.1204  -5.1113  -5.1065  -5.1024
    -5.0964  -5.0792  -5.0395  -5.0027  -4.9962  -4.9899  -4.9781  -4.9674
    -4.2322  -4.0294  -3.9708  -3.7649  -3.6599  -3.4306  -3.3689  -3.1510
    -0.7429  -0.6320  -0.5877  -0.5508  -0.3540  -0.2887  -0.1908  -0.1710
    -0.0541  -0.0008   0.0541   0.1420   0.3033   0.3376   0.4370   0.4747
     0.4947   0.5511   0.5693   0.6239   0.6402   0.6808   0.7082   0.7536
     0.7726   0.8534   0.8852   0.9169   0.9610   0.9859   1.0372   1.0968
     1.1566   1.1911   1.2347   1.2435   1.2803   1.3176   1.3463   1.3699
     1.4074   1.4279   1.4519   1.5100   1.5291   1.5418   1.5783   1.6193
     1.6425   1.6593   1.6907   1.7053   1.7415   1.7616   1.7722   1.8054
     1.8251   1.8431   1.8710   1.8975   1.9413   1.9575   2.0069   2.0250
     2.0602   2.0916   2.1335   2.1838   2.3448   2.4744   2.5653   2.6819

          k = 0.3750 0.3750 0.3750 (132612 PWs)   bands (ev):

   -18.5099 -18.5025 -18.4712 -18.4310 -18.3504 -18.3382 -18.3315 -18.3295
   -18.3279 -18.3190 -18.3181 -18.3176 -18.3141 -18.3135 -18.3107 -18.3081
   -18.3037 -18.2993 -18.2985 -18.2925 -18.2889 -18.2877 -18.2866 -18.2795
   -18.2759 -18.2702 -18.2079 -18.2003 -18.1929 -18.1855 -18.1788 -18.1720
   -18.1621 -18.1327 -18.1239 -18.1228 -18.1148 -18.1092 -18.1091 -18.0988
   -18.0903 -18.0866 -18.0827 -18.0717 -18.0598 -18.0451 -18.0418 -18.0384
    -9.6004  -9.4329  -9.3928  -9.2777  -9.2557  -9.1683  -9.1191  -9.0674
    -9.0346  -8.9743  -8.9466  -8.9098  -8.8870  -8.8351  -8.7925  -8.7612
    -8.7476  -8.6867  -8.6542  -8.6386  -8.5815  -8.5651  -8.5588  -8.4317
    -5.2880  -5.2789  -5.2725  -5.2636  -5.2574  -5.2530  -5.2444  -5.2399
    -5.2332  -5.2062  -5.2023  -5.1841  -5.1203  -5.1114  -5.1063  -5.1022
    -5.0965  -5.0792  -5.0395  -5.0026  -4.9962  -4.9899  -4.9785  -4.9665
    -4.1256  -3.9306  -3.8927  -3.8166  -3.6698  -3.5607  -3.5117  -3.3195
    -0.5341  -0.3946  -0.3870  -0.3519  -0.2633  -0.2469  -0.1727  -0.1114
    -0.0295   0.0205   0.1208   0.1991   0.3015   0.3209   0.3712   0.4302
     0.4516   0.4780   0.5268   0.5684   0.5983   0.6292   0.6913   0.7325
     0.8211   0.8606   0.8856   0.9104   0.9370   0.9555   0.9961   1.0333
     1.0878   1.1096   1.1490   1.1756   1.2173   1.2347   1.2770   1.3183
     1.3876   1.4460   1.4700   1.4983   1.5380   1.5829   1.6260   1.6550
     1.6668   1.6867   1.7130   1.7322   1.7459   1.7666   1.7985   1.8202
     1.8317   1.8700   1.8921   1.9015   1.9252   1.9395   1.9634   2.0134
     2.0224   2.0455   2.0840   2.1069   2.1583   2.2214   2.2766   2.3949

          k =-0.1250-0.1250 0.1250 (132670 PWs)   bands (ev):

   -18.5099 -18.5025 -18.4712 -18.4310 -18.3504 -18.3382 -18.3315 -18.3295
   -18.3279 -18.3190 -18.3181 -18.3176 -18.3141 -18.3135 -18.3107 -18.3081
   -18.3037 -18.2993 -18.2985 -18.2925 -18.2889 -18.2877 -18.2866 -18.2795
   -18.2759 -18.2702 -18.2079 -18.2003 -18.1929 -18.1855 -18.1788 -18.1720
   -18.1621 -18.1327 -18.1239 -18.1228 -18.1148 -18.1092 -18.1091 -18.0988
   -18.0903 -18.0866 -18.0827 -18.0717 -18.0598 -18.0451 -18.0418 -18.0384
    -9.6074  -9.4583  -9.3731  -9.2910  -9.2348  -9.1601  -9.1004  -9.0369
    -9.0031  -8.9872  -8.9615  -8.9194  -8.8817  -8.8668  -8.8109  -8.7727
    -8.7602  -8.6941  -8.6552  -8.6454  -8.5701  -8.5539  -8.5473  -8.4283
    -5.2878  -5.2788  -5.2726  -5.2656  -5.2574  -5.2516  -5.2447  -5.2397
    -5.2333  -5.2060  -5.2026  -5.1837  -5.1203  -5.1117  -5.1067  -5.1014
    -5.0961  -5.0793  -5.0396  -5.0028  -4.9962  -4.9903  -4.9781  -4.9673
    -4.4673  -3.9911  -3.9372  -3.8900  -3.4270  -3.3749  -3.3212  -2.7516
    -0.8237  -0.7059  -0.6635  -0.6460  -0.6051  -0.5851  -0.5189  -0.4869
    -0.4115  -0.3340  -0.2535  -0.1821   0.3847   0.4351   0.4912   0.5459
     0.5980   0.6516   0.7273   0.7695   0.7927   0.8802   0.9062   0.9255
     0.9543   1.0207   1.0466   1.0590   1.0817   1.0974   1.1435   1.1574
     1.2083   1.2178   1.2587   1.2866   1.3030   1.3276   1.3529   1.3865
     1.4032   1.4429   1.4595   1.4782   1.5206   1.5378   1.5542   1.5793
     1.6053   1.6326   1.6567   1.6725   1.6874   1.7142   1.7427   1.7634
     1.7816   1.8121   1.8303   2.0097   2.0419   2.0767   2.1037   2.1164
     2.1514   2.1716   2.2511   2.3172   2.6479   2.7909   2.8374   3.1690

          k =-0.1250 0.1250-0.1250 (132670 PWs)   bands (ev):

   -18.5099 -18.5025 -18.4712 -18.4310 -18.3504 -18.3382 -18.3315 -18.3295
   -18.3279 -18.3190 -18.3181 -18.3176 -18.3141 -18.3135 -18.3107 -18.3081
   -18.3037 -18.2993 -18.2985 -18.2925 -18.2889 -18.2877 -18.2866 -18.2795
   -18.2759 -18.2702 -18.2079 -18.2003 -18.1929 -18.1855 -18.1788 -18.1720
   -18.1621 -18.1327 -18.1239 -18.1228 -18.1148 -18.1092 -18.1091 -18.0988
   -18.0903 -18.0866 -18.0827 -18.0717 -18.0598 -18.0451 -18.0418 -18.0384
    -9.6077  -9.4563  -9.3748  -9.2917  -9.2336  -9.1614  -9.0979  -9.0416
    -8.9991  -8.9914  -8.9573  -8.9200  -8.8810  -8.8663  -8.8113  -8.7741
    -8.7601  -8.6936  -8.6557  -8.6449  -8.5703  -8.5544  -8.5468  -8.4282
    -5.2878  -5.2789  -5.2726  -5.2656  -5.2574  -5.2516  -5.2446  -5.2397
    -5.2332  -5.2062  -5.2026  -5.1837  -5.1202  -5.1117  -5.1068  -5.1015
    -5.0960  -5.0793  -5.0396  -5.0028  -4.9962  -4.9901  -4.9780  -4.9674
    -4.4683  -3.9867  -3.9432  -3.8836  -3.4421  -3.3650  -3.3221  -2.7487
    -0.8100  -0.7033  -0.6925  -0.6577  -0.6081  -0.5557  -0.5313  -0.4838
    -0.4189  -0.3029  -0.2640  -0.1889   0.3833   0.4306   0.4921   0.5435
     0.5960   0.6530   0.7242   0.7746   0.7986   0.8812   0.8997   0.9366
     0.9692   0.9984   1.0398   1.0625   1.0877   1.1196   1.1479   1.1792
     1.1888   1.2060   1.2321   1.2864   1.2983   1.3341   1.3589   1.3849
     1.4140   1.4397   1.4656   1.4854   1.5091   1.5370   1.5641   1.5925
     1.6123   1.6463   1.6524   1.6726   1.6795   1.7033   1.7321   1.7502
     1.7734   1.7880   1.8316   2.0081   2.0530   2.0866   2.1058   2.1229
     2.1612   2.1784   2.2218   2.3428   2.6442   2.7660   2.8400   3.1773

          k = 0.1250-0.1250-0.1250 (132670 PWs)   bands (ev):

   -18.5099 -18.5025 -18.4712 -18.4310 -18.3504 -18.3382 -18.3315 -18.3295
   -18.3279 -18.3190 -18.3181 -18.3176 -18.3141 -18.3135 -18.3107 -18.3081
   -18.3037 -18.2993 -18.2985 -18.2925 -18.2889 -18.2877 -18.2866 -18.2795
   -18.2759 -18.2702 -18.2079 -18.2003 -18.1929 -18.1855 -18.1788 -18.1720
   -18.1621 -18.1327 -18.1239 -18.1228 -18.1148 -18.1092 -18.1091 -18.0988
   -18.0903 -18.0866 -18.0827 -18.0717 -18.0598 -18.0451 -18.0418 -18.0384
    -9.6074  -9.4579  -9.3747  -9.2885  -9.2358  -9.1596  -9.0998  -9.0432
    -8.9991  -8.9880  -8.9595  -8.9176  -8.8867  -8.8642  -8.8092  -8.7721
    -8.7632  -8.6917  -8.6552  -8.6477  -8.5699  -8.5541  -8.5466  -8.4283
    -5.2888  -5.2778  -5.2726  -5.2650  -5.2574  -5.2523  -5.2447  -5.2397
    -5.2333  -5.2059  -5.2026  -5.1838  -5.1203  -5.1116  -5.1069  -5.1016
    -5.0960  -5.0793  -5.0396  -5.0028  -4.9962  -4.9902  -4.9780  -4.9674
    -4.4670  -3.9815  -3.9583  -3.8781  -3.4344  -3.3598  -3.3292  -2.7523
    -0.8171  -0.7077  -0.6740  -0.6473  -0.6043  -0.5624  -0.5356  -0.4786
    -0.4093  -0.3372  -0.2548  -0.1924   0.3889   0.4209   0.4950   0.5475
     0.5903   0.6571   0.7392   0.7678   0.7890   0.8765   0.9181   0.9372
     0.9599   1.0007   1.0274   1.0800   1.0926   1.1089   1.1336   1.1717
     1.1846   1.2261   1.2518   1.2776   1.3001   1.3249   1.3562   1.3944
     1.4271   1.4521   1.4675   1.4784   1.5093   1.5351   1.5471   1.5571
     1.6043   1.6284   1.6433   1.6847   1.6926   1.7088   1.7295   1.7687
     1.7857   1.8079   1.8316   2.0029   2.0503   2.0931   2.1037   2.1122
     2.1570   2.1858   2.2268   2.3240   2.6529   2.7867   2.8310   3.1652

          k =-0.1250-0.1250 0.3750 (132608 PWs)   bands (ev):

   -18.5099 -18.5025 -18.4712 -18.4310 -18.3504 -18.3382 -18.3315 -18.3295
   -18.3279 -18.3190 -18.3181 -18.3176 -18.3141 -18.3135 -18.3107 -18.3081
   -18.3037 -18.2993 -18.2985 -18.2925 -18.2889 -18.2877 -18.2866 -18.2795
   -18.2759 -18.2702 -18.2079 -18.2003 -18.1929 -18.1855 -18.1788 -18.1720
   -18.1621 -18.1327 -18.1239 -18.1228 -18.1148 -18.1092 -18.1091 -18.0988
   -18.0903 -18.0866 -18.0827 -18.0717 -18.0598 -18.0451 -18.0418 -18.0384
    -9.6037  -9.4603  -9.3662  -9.2860  -9.2522  -9.1679  -9.0954  -9.0323
    -9.0063  -8.9893  -8.9668  -8.9225  -8.8882  -8.8647  -8.7911  -8.7707
    -8.7658  -8.6727  -8.6592  -8.6393  -8.5782  -8.5626  -8.5486  -8.4298
    -5.2853  -5.2814  -5.2722  -5.2642  -5.2576  -5.2528  -5.2442  -5.2397
    -5.2333  -5.2061  -5.2029  -5.1834  -5.1204  -5.1120  -5.1068  -5.1015
    -5.0959  -5.0795  -5.0396  -5.0030  -4.9961  -4.9903  -4.9781  -4.9671
    -4.3436  -4.1317  -3.8249  -3.7997  -3.5721  -3.5439  -3.2030  -2.9698
    -0.7688  -0.6668  -0.6442  -0.6141  -0.5473  -0.5170  -0.4358  -0.4027
    -0.1530  -0.0918  -0.0040   0.0892   0.3570   0.4139   0.4722   0.4846
     0.5135   0.5957   0.6366   0.6819   0.7130   0.7201   0.7601   0.7946
     0.8533   0.8976   0.9577   0.9922   1.0635   1.0813   1.1050   1.1228
     1.1813   1.2214   1.2612   1.3076   1.3286   1.3375   1.3513   1.3883
     1.4129   1.4324   1.4586   1.4927   1.5258   1.5488   1.5614   1.5889
     1.6180   1.6419   1.6550   1.6806   1.7165   1.7438   1.7568   1.7981
     1.8258   1.8536   1.8742   1.9073   1.9916   2.0052   2.0402   2.0795
     2.0855   2.1166   2.2079   2.2612   2.4409   2.5559   2.8078   2.9185

          k =-0.1250 0.1250-0.3750 (132608 PWs)   bands (ev):

   -18.5099 -18.5025 -18.4712 -18.4310 -18.3504 -18.3382 -18.3315 -18.3295
   -18.3279 -18.3190 -18.3181 -18.3176 -18.3141 -18.3135 -18.3107 -18.3081
   -18.3037 -18.2993 -18.2985 -18.2925 -18.2889 -18.2877 -18.2866 -18.2795
   -18.2759 -18.2702 -18.2079 -18.2003 -18.1929 -18.1855 -18.1788 -18.1720
   -18.1621 -18.1327 -18.1239 -18.1228 -18.1148 -18.1092 -18.1091 -18.0988
   -18.0903 -18.0866 -18.0827 -18.0717 -18.0598 -18.0451 -18.0418 -18.0384
    -9.6041  -9.4584  -9.3677  -9.2875  -9.2505  -9.1696  -9.0925  -9.0337
    -9.0069  -8.9939  -8.9611  -8.9222  -8.8877  -8.8652  -8.7923  -8.7753
    -8.7593  -8.6794  -8.6531  -8.6399  -8.5787  -8.5626  -8.5485  -8.4298
    -5.2853  -5.2814  -5.2723  -5.2642  -5.2576  -5.2528  -5.2441  -5.2397
    -5.2332  -5.2064  -5.2028  -5.1835  -5.1202  -5.1120  -5.1069  -5.1016
    -5.0958  -5.0795  -5.0396  -5.0030  -4.9961  -4.9901  -4.9781  -4.9673
    -4.3469  -4.1247  -3.8473  -3.7696  -3.6077  -3.5175  -3.2115  -2.9628
    -0.7570  -0.6727  -0.6321  -0.6004  -0.5838  -0.5339  -0.4437  -0.3879
    -0.1404  -0.0689  -0.0195   0.0885   0.3439   0.4077   0.4786   0.4847
     0.5329   0.5925   0.6209   0.6689   0.7145   0.7421   0.7615   0.8040
     0.8549   0.8976   0.9546   0.9884   1.0342   1.0645   1.1305   1.1430
     1.1877   1.2156   1.2548   1.2661   1.3207   1.3464   1.3721   1.4022
     1.4327   1.4437   1.4839   1.4924   1.5030   1.5369   1.5661   1.5947
     1.6313   1.6465   1.6553   1.6712   1.7101   1.7141   1.7432   1.8017
     1.8166   1.8303   1.8725   1.9171   1.9905   2.0270   2.0478   2.0788
     2.0963   2.1189   2.1929   2.3131   2.3921   2.5623   2.7843   2.9337

          k = 0.1250-0.1250-0.3750 (132608 PWs)   bands (ev):

   -18.5099 -18.5025 -18.4712 -18.4310 -18.3504 -18.3382 -18.3315 -18.3295
   -18.3279 -18.3190 -18.3181 -18.3176 -18.3141 -18.3135 -18.3107 -18.3081
   -18.3037 -18.2993 -18.2985 -18.2925 -18.2889 -18.2877 -18.2866 -18.2795
   -18.2759 -18.2702 -18.2079 -18.2003 -18.1929 -18.1855 -18.1788 -18.1720
   -18.1621 -18.1327 -18.1239 -18.1228 -18.1148 -18.1092 -18.1091 -18.0988
   -18.0903 -18.0866 -18.0827 -18.0717 -18.0598 -18.0451 -18.0418 -18.0384
    -9.6037  -9.4601  -9.3675  -9.2830  -9.2538  -9.1680  -9.0945  -9.0365
    -9.0042  -8.9910  -8.9639  -8.9203  -8.8911  -8.8639  -8.7914  -8.7719
    -8.7638  -8.6722  -8.6599  -8.6405  -8.5781  -8.5623  -8.5483  -8.4298
    -5.2872  -5.2795  -5.2722  -5.2634  -5.2576  -5.2537  -5.2442  -5.2397
    -5.2333  -5.2061  -5.2029  -5.1836  -5.1203  -5.1118  -5.1070  -5.1016
    -5.0958  -5.0794  -5.0397  -5.0030  -4.9961  -4.9901  -4.9781  -4.9673
    -4.3432  -4.1309  -3.8400  -3.7853  -3.5815  -3.5326  -3.2051  -2.9700
    -0.7592  -0.6799  -0.6223  -0.6178  -0.5607  -0.5312  -0.4232  -0.3946
    -0.1444  -0.1116  -0.0112   0.0897   0.3640   0.4142   0.4664   0.4855
     0.5115   0.5952   0.6561   0.6725   0.7050   0.7323   0.7708   0.8012
     0.8560   0.8866   0.9537   0.9710   1.0460   1.0752   1.1222   1.1425
     1.1873   1.2033   1.2656   1.3034   1.3106   1.3380   1.3880   1.4160
     1.4347   1.4444   1.4687   1.4899   1.4975   1.5188   1.5566   1.5864
     1.6098   1.6382   1.6596   1.6756   1.6961   1.7340   1.7563   1.7991
     1.8203   1.8543   1.8770   1.9207   2.0021   2.0112   2.0506   2.0805
     2.0973   2.1206   2.2165   2.2336   2.4449   2.5514   2.8007   2.9139

          k = 0.3750-0.1250 0.1250 (132608 PWs)   bands (ev):

   -18.5099 -18.5025 -18.4712 -18.4311 -18.3504 -18.3382 -18.3315 -18.3295
   -18.3279 -18.3190 -18.3181 -18.3176 -18.3141 -18.3135 -18.3107 -18.3081
   -18.3037 -18.2993 -18.2985 -18.2925 -18.2889 -18.2877 -18.2866 -18.2795
   -18.2759 -18.2702 -18.2079 -18.2003 -18.1929 -18.1855 -18.1788 -18.1720
   -18.1621 -18.1327 -18.1239 -18.1228 -18.1148 -18.1092 -18.1091 -18.0988
   -18.0903 -18.0866 -18.0827 -18.0717 -18.0598 -18.0451 -18.0418 -18.0384
    -9.6044  -9.4376  -9.4061  -9.2735  -9.2268  -9.1796  -9.1131  -9.0470
    -9.0006  -8.9883  -8.9537  -8.9111  -8.8811  -8.8689  -8.8075  -8.7674
    -8.7506  -8.6877  -8.6580  -8.6431  -8.5725  -8.5581  -8.5534  -8.4298
    -5.2878  -5.2788  -5.2727  -5.2654  -5.2574  -5.2517  -5.2446  -5.2396
    -5.2324  -5.2065  -5.2024  -5.1839  -5.1203  -5.1117  -5.1068  -5.1014
    -5.0962  -5.0794  -5.0397  -5.0029  -4.9962  -4.9899  -4.9786  -4.9670
    -4.3474  -4.0961  -3.8803  -3.7837  -3.5863  -3.4896  -3.2668  -2.9520
    -0.7547  -0.6560  -0.6211  -0.6129  -0.5667  -0.5052  -0.4393  -0.3472
    -0.1477  -0.1046  -0.0231   0.0050   0.3695   0.4217   0.4332   0.5232
     0.5609   0.5976   0.6303   0.6802   0.7044   0.7377   0.7676   0.8102
     0.8819   0.9065   0.9349   1.0382   1.0500   1.0815   1.0984   1.1363
     1.1561   1.1940   1.2379   1.2640   1.3016   1.3507   1.3648   1.3862
     1.4146   1.4276   1.4682   1.5171   1.5386   1.5649   1.5893   1.5988
     1.6266   1.6437   1.6698   1.6888   1.6994   1.7219   1.7361   1.7592
     1.7897   1.8409   1.8533   1.9345   1.9618   2.0017   2.0213   2.0680
     2.1176   2.1414   2.1855   2.3153   2.4352   2.5293   2.7422   2.9114

          k =-0.3750-0.1250-0.1250 (132608 PWs)   bands (ev):

   -18.5099 -18.5025 -18.4712 -18.4311 -18.3504 -18.3382 -18.3315 -18.3295
   -18.3279 -18.3190 -18.3181 -18.3176 -18.3141 -18.3135 -18.3107 -18.3081
   -18.3037 -18.2993 -18.2985 -18.2925 -18.2889 -18.2877 -18.2866 -18.2795
   -18.2759 -18.2702 -18.2079 -18.2003 -18.1929 -18.1855 -18.1788 -18.1720
   -18.1621 -18.1327 -18.1239 -18.1228 -18.1148 -18.1092 -18.1091 -18.0988
   -18.0903 -18.0866 -18.0827 -18.0717 -18.0598 -18.0451 -18.0418 -18.0384
    -9.6043  -9.4392  -9.4043  -9.2734  -9.2294  -9.1737  -9.1181  -9.0497
    -8.9933  -8.9894  -8.9561  -8.9088  -8.8866  -8.8658  -8.8083  -8.7668
    -8.7478  -8.6915  -8.6572  -8.6429  -8.5724  -8.5575  -8.5536  -8.4298
    -5.2888  -5.2778  -5.2727  -5.2648  -5.2573  -5.2524  -5.2446  -5.2396
    -5.2325  -5.2064  -5.2024  -5.1841  -5.1205  -5.1116  -5.1068  -5.1014
    -5.0963  -5.0794  -5.0397  -5.0029  -4.9963  -4.9900  -4.9787  -4.9668
    -4.3474  -4.0935  -3.8811  -3.7922  -3.5746  -3.4921  -3.2703  -2.9507
    -0.7527  -0.6577  -0.6247  -0.6010  -0.5778  -0.5145  -0.4355  -0.3457
    -0.1467  -0.0926  -0.0241   0.0002   0.3705   0.4316   0.4544   0.5139
     0.5524   0.6061   0.6313   0.6599   0.6922   0.7456   0.7646   0.8019
     0.8760   0.9151   0.9464   1.0150   1.0611   1.0738   1.1009   1.1388
     1.1481   1.1998   1.2376   1.2682   1.3099   1.3280   1.3623   1.4037
     1.4391   1.4543   1.4826   1.4989   1.5077   1.5471   1.5854   1.5911
     1.6211   1.6483   1.6554   1.6832   1.7047   1.7284   1.7559   1.7722
     1.7928   1.8487   1.8640   1.9231   1.9628   1.9887   2.0283   2.0694
     2.1048   2.1388   2.2071   2.3302   2.3988   2.5143   2.7606   2.9208

          k = 0.3750 0.1250-0.1250 (132608 PWs)   bands (ev):

   -18.5099 -18.5025 -18.4712 -18.4311 -18.3504 -18.3382 -18.3315 -18.3295
   -18.3279 -18.3190 -18.3181 -18.3176 -18.3141 -18.3135 -18.3107 -18.3081
   -18.3037 -18.2993 -18.2985 -18.2925 -18.2889 -18.2877 -18.2866 -18.2795
   -18.2759 -18.2702 -18.2079 -18.2003 -18.1929 -18.1855 -18.1788 -18.1720
   -18.1621 -18.1327 -18.1239 -18.1228 -18.1148 -18.1092 -18.1091 -18.0988
   -18.0903 -18.0866 -18.0827 -18.0717 -18.0598 -18.0451 -18.0418 -18.0384
    -9.6040  -9.4420  -9.4019  -9.2727  -9.2281  -9.1791  -9.1142  -9.0436
    -9.0032  -8.9865  -8.9561  -8.9107  -8.8816  -8.8693  -8.8073  -8.7665
    -8.7503  -8.6882  -8.6578  -8.6433  -8.5721  -8.5572  -8.5544  -8.4298
    -5.2878  -5.2788  -5.2726  -5.2654  -5.2573  -5.2517  -5.2447  -5.2396
    -5.2325  -5.2062  -5.2025  -5.1839  -5.1204  -5.1117  -5.1068  -5.1013
    -5.0963  -5.0795  -5.0397  -5.0029  -4.9962  -4.9901  -4.9787  -4.9668
    -4.3446  -4.1017  -3.8777  -3.7876  -3.5832  -3.4874  -3.2636  -2.9568
    -0.7657  -0.6524  -0.6162  -0.5925  -0.5739  -0.5113  -0.4321  -0.3599
    -0.1437  -0.0945  -0.0332  -0.0024   0.3803   0.4154   0.4664   0.5195
     0.5533   0.5902   0.6244   0.6687   0.7013   0.7370   0.7575   0.8085
     0.8752   0.9138   0.9524   1.0240   1.0551   1.0839   1.1026   1.1333
     1.1574   1.1904   1.2340   1.2763   1.3175   1.3422   1.3639   1.3739
     1.4135   1.4580   1.4705   1.4897   1.5314   1.5535   1.5731   1.5997
     1.6275   1.6403   1.6561   1.6780   1.6989   1.7384   1.7530   1.7885
     1.8290   1.8404   1.8646   1.9193   1.9542   1.9942   2.0189   2.0553
     2.1009   2.1404   2.2066   2.2969   2.4569   2.5120   2.7648   2.8988

          k =-0.3750 0.1250 0.1250 (132608 PWs)   bands (ev):

   -18.5099 -18.5025 -18.4712 -18.4311 -18.3504 -18.3382 -18.3315 -18.3295
   -18.3279 -18.3190 -18.3181 -18.3176 -18.3141 -18.3135 -18.3107 -18.3081
   -18.3037 -18.2993 -18.2985 -18.2925 -18.2889 -18.2877 -18.2866 -18.2795
   -18.2759 -18.2702 -18.2079 -18.2003 -18.1929 -18.1855 -18.1788 -18.1720
   -18.1621 -18.1327 -18.1239 -18.1228 -18.1148 -18.1092 -18.1091 -18.0988
   -18.0903 -18.0866 -18.0827 -18.0717 -18.0598 -18.0451 -18.0418 -18.0384
    -9.6040  -9.4408  -9.4042  -9.2704  -9.2290  -9.1765  -9.1171  -9.0501
    -8.9944  -8.9869  -8.9579  -8.9096  -8.8866  -8.8650  -8.8063  -8.7659
    -8.7536  -8.6849  -8.6583  -8.6458  -8.5721  -8.5574  -8.5535  -8.4298
    -5.2888  -5.2778  -5.2726  -5.2649  -5.2573  -5.2524  -5.2447  -5.2396
    -5.2325  -5.2062  -5.2025  -5.1841  -5.1203  -5.1115  -5.1069  -5.1014
    -5.0963  -5.0794  -5.0397  -5.0029  -4.9962  -4.9899  -4.9786  -4.9670
    -4.3440  -4.1031  -3.8810  -3.7815  -3.5826  -3.4910  -3.2619  -2.9577
    -0.7575  -0.6534  -0.6298  -0.5948  -0.5668  -0.4998  -0.4427  -0.3485
    -0.1457  -0.1094  -0.0410   0.0075   0.3700   0.4088   0.4535   0.5304
     0.5585   0.5958   0.6339   0.6660   0.7139   0.7331   0.7687   0.8180
     0.8680   0.9134   0.9371   1.0273   1.0615   1.0840   1.0974   1.1298
     1.1438   1.2140   1.2381   1.2749   1.2934   1.3353   1.3649   1.4026
     1.4287   1.4527   1.4699   1.4998   1.5159   1.5430   1.5749   1.5970
     1.6015   1.6323   1.6789   1.6894   1.7065   1.7257   1.7559   1.7766
     1.8124   1.8418   1.8670   1.9300   1.9644   1.9967   2.0177   2.0515
     2.1127   2.1447   2.1978   2.3002   2.4521   2.5098   2.7617   2.8980

          k =-0.1250 0.3750 0.1250 (132608 PWs)   bands (ev):

   -18.5099 -18.5025 -18.4712 -18.4310 -18.3504 -18.3382 -18.3315 -18.3295
   -18.3279 -18.3190 -18.3181 -18.3176 -18.3141 -18.3135 -18.3107 -18.3081
   -18.3037 -18.2993 -18.2985 -18.2925 -18.2889 -18.2877 -18.2866 -18.2795
   -18.2759 -18.2702 -18.2079 -18.2003 -18.1929 -18.1855 -18.1788 -18.1720
   -18.1621 -18.1327 -18.1239 -18.1228 -18.1148 -18.1092 -18.1091 -18.0988
   -18.0903 -18.0866 -18.0827 -18.0717 -18.0598 -18.0451 -18.0418 -18.0384
    -9.6050  -9.4507  -9.3734  -9.2986  -9.2409  -9.1556  -9.1037  -9.0649
    -9.0040  -8.9809  -8.9544  -8.9173  -8.8857  -8.8472  -8.8049  -8.7716
    -8.7633  -8.6828  -8.6585  -8.6427  -8.5751  -8.5608  -8.5483  -8.4293
    -5.2873  -5.2791  -5.2725  -5.2638  -5.2573  -5.2532  -5.2446  -5.2398
    -5.2334  -5.2058  -5.2026  -5.1840  -5.1204  -5.1113  -5.1066  -5.1025
    -5.0964  -5.0789  -5.0396  -5.0027  -4.9962  -4.9900  -4.9780  -4.9677
    -4.3468  -4.1202  -3.8605  -3.7649  -3.5908  -3.5201  -3.2293  -2.9605
    -0.7990  -0.6750  -0.6340  -0.6016  -0.5583  -0.5291  -0.3826  -0.3170
    -0.1628  -0.0861  -0.0100   0.0225   0.3276   0.4169   0.4560   0.5174
     0.5401   0.5666   0.6146   0.6610   0.7223   0.7339   0.7624   0.8079
     0.8663   0.8889   0.9554   1.0233   1.0330   1.0752   1.1208   1.1533
     1.1786   1.2135   1.2394   1.2886   1.3107   1.3305   1.3598   1.3943
     1.4219   1.4463   1.4675   1.4906   1.5293   1.5479   1.5626   1.5825
     1.6262   1.6386   1.6506   1.6925   1.7139   1.7277   1.7482   1.7806
     1.8021   1.8279   1.8492   1.8781   1.9857   2.0094   2.0244   2.0541
     2.1401   2.1635   2.2089   2.3072   2.4424   2.6179   2.7944   2.9078

          k =-0.1250-0.3750-0.1250 (132608 PWs)   bands (ev):

   -18.5099 -18.5025 -18.4712 -18.4310 -18.3504 -18.3382 -18.3315 -18.3295
   -18.3279 -18.3190 -18.3181 -18.3176 -18.3141 -18.3135 -18.3107 -18.3081
   -18.3037 -18.2993 -18.2985 -18.2925 -18.2889 -18.2877 -18.2866 -18.2795
   -18.2759 -18.2702 -18.2079 -18.2003 -18.1929 -18.1855 -18.1788 -18.1720
   -18.1621 -18.1327 -18.1239 -18.1228 -18.1148 -18.1092 -18.1091 -18.0988
   -18.0903 -18.0866 -18.0827 -18.0717 -18.0598 -18.0451 -18.0418 -18.0384
    -9.6053  -9.4501  -9.3712  -9.3017  -9.2420  -9.1545  -9.1045  -9.0618
    -9.0040  -8.9863  -8.9497  -8.9161  -8.8864  -8.8489  -8.8073  -8.7699
    -8.7601  -8.6889  -8.6551  -8.6418  -8.5753  -8.5611  -8.5484  -8.4293
    -5.2874  -5.2791  -5.2725  -5.2637  -5.2573  -5.2532  -5.2445  -5.2398
    -5.2333  -5.2060  -5.2025  -5.1840  -5.1205  -5.1113  -5.1065  -5.1025
    -5.0964  -5.0790  -5.0396  -5.0027  -4.9963  -4.9900  -4.9781  -4.9676
    -4.3487  -4.1197  -3.8382  -3.7808  -3.5968  -3.5247  -3.2268  -2.9563
    -0.7972  -0.6842  -0.6422  -0.5982  -0.5606  -0.5214  -0.3892  -0.3203
    -0.1429  -0.0963  -0.0049   0.0320   0.3282   0.4428   0.4539   0.5130
     0.5416   0.5552   0.5963   0.6666   0.7197   0.7378   0.7628   0.7869
     0.8664   0.9003   0.9607   1.0085   1.0417   1.0767   1.1163   1.1449
     1.1868   1.2182   1.2508   1.2664   1.2986   1.3295   1.3583   1.4038
     1.4309   1.4613   1.4730   1.4914   1.5170   1.5463   1.5740   1.5850
     1.6153   1.6396   1.6552   1.6837   1.6956   1.7360   1.7542   1.7746
     1.8140   1.8277   1.8521   1.8822   1.9734   2.0020   2.0166   2.0596
     2.1428   2.1646   2.2434   2.3371   2.3886   2.5760   2.8130   2.9379

          k = 0.1250 0.3750-0.1250 (132608 PWs)   bands (ev):

   -18.5099 -18.5025 -18.4712 -18.4310 -18.3504 -18.3382 -18.3315 -18.3295
   -18.3279 -18.3190 -18.3181 -18.3176 -18.3141 -18.3135 -18.3107 -18.3081
   -18.3037 -18.2993 -18.2985 -18.2925 -18.2889 -18.2877 -18.2866 -18.2795
   -18.2759 -18.2702 -18.2079 -18.2003 -18.1929 -18.1855 -18.1788 -18.1720
   -18.1621 -18.1327 -18.1239 -18.1228 -18.1148 -18.1092 -18.1091 -18.0988
   -18.0903 -18.0866 -18.0827 -18.0717 -18.0598 -18.0451 -18.0418 -18.0384
    -9.6050  -9.4512  -9.3714  -9.3012  -9.2403  -9.1559  -9.1050  -9.0596
    -9.0060  -8.9811  -8.9557  -8.9183  -8.8836  -8.8476  -8.8073  -8.7713
    -8.7610  -8.6858  -8.6570  -8.6411  -8.5755  -8.5606  -8.5489  -8.4293
    -5.2858  -5.2807  -5.2725  -5.2645  -5.2573  -5.2524  -5.2447  -5.2398
    -5.2333  -5.2059  -5.2026  -5.1838  -5.1204  -5.1114  -5.1064  -5.1024
    -5.0964  -5.0790  -5.0395  -5.0027  -4.9962  -4.9902  -4.9781  -4.9675
    -4.3475  -4.1194  -3.8538  -3.7760  -3.5799  -3.5274  -3.2295  -2.9596
    -0.8017  -0.6789  -0.6256  -0.6006  -0.5560  -0.5314  -0.3931  -0.3318
    -0.1491  -0.0793  -0.0132   0.0407   0.3290   0.4332   0.4544   0.5151
     0.5384   0.5588   0.6069   0.6758   0.6872   0.7404   0.7743   0.7852
     0.8620   0.8938   0.9520   1.0157   1.0354   1.0946   1.1062   1.1472
     1.1908   1.2190   1.2458   1.2852   1.3215   1.3398   1.3626   1.3858
     1.3952   1.4484   1.4689   1.4867   1.5323   1.5473   1.5581   1.6007
     1.6117   1.6398   1.6493   1.6851   1.7184   1.7487   1.7566   1.7856
     1.7954   1.8303   1.8484   1.8868   1.9742   1.9999   2.0216   2.0586
     2.1421   2.1568   2.2273   2.2923   2.4373   2.6165   2.8055   2.9053

          k = 0.1250-0.3750 0.1250 (132608 PWs)   bands (ev):

   -18.5099 -18.5025 -18.4712 -18.4310 -18.3504 -18.3382 -18.3315 -18.3295
   -18.3279 -18.3190 -18.3181 -18.3176 -18.3141 -18.3135 -18.3107 -18.3081
   -18.3037 -18.2993 -18.2985 -18.2925 -18.2889 -18.2877 -18.2866 -18.2795
   -18.2759 -18.2702 -18.2079 -18.2003 -18.1929 -18.1855 -18.1788 -18.1720
   -18.1621 -18.1327 -18.1239 -18.1228 -18.1148 -18.1092 -18.1091 -18.0988
   -18.0903 -18.0866 -18.0827 -18.0717 -18.0598 -18.0451 -18.0418 -18.0384
    -9.6053  -9.4493  -9.3729  -9.3016  -9.2397  -9.1586  -9.1013  -9.0610
    -9.0053  -8.9864  -8.9497  -8.9185  -8.8839  -8.8475  -8.8070  -8.7703
    -8.7639  -8.6848  -8.6565  -8.6417  -8.5755  -8.5612  -8.5485  -8.4293
    -5.2858  -5.2807  -5.2725  -5.2646  -5.2573  -5.2524  -5.2446  -5.2397
    -5.2333  -5.2061  -5.2025  -5.1838  -5.1203  -5.1114  -5.1065  -5.1025
    -5.0964  -5.0790  -5.0395  -5.0027  -4.9962  -4.9900  -4.9780  -4.9677
    -4.3488  -4.1221  -3.8361  -3.7739  -3.6022  -3.5286  -3.2229  -2.9578
    -0.7933  -0.6855  -0.6554  -0.5954  -0.5390  -0.5233  -0.3987  -0.3190
    -0.1632  -0.0735   0.0021   0.0177   0.3269   0.4179   0.4557   0.5214
     0.5353   0.5650   0.6176   0.6769   0.6943   0.7392   0.7641   0.7958
     0.8556   0.9016   0.9620   1.0102   1.0500   1.0876   1.1167   1.1480
     1.1803   1.2255   1.2514   1.2701   1.2921   1.3212   1.3583   1.3980
     1.4118   1.4401   1.4677   1.4957   1.5372   1.5573   1.5771   1.5986
     1.6156   1.6397   1.6600   1.6772   1.7166   1.7456   1.7532   1.7619
     1.7914   1.8037   1.8502   1.8904   1.9811   2.0050   2.0197   2.0567
     2.1500   2.1630   2.2214   2.3506   2.4085   2.5662   2.8254   2.9140

          k =-0.1250-0.3750 0.3750 (132616 PWs)   bands (ev):

   -18.5099 -18.5025 -18.4712 -18.4310 -18.3504 -18.3382 -18.3315 -18.3295
   -18.3279 -18.3190 -18.3181 -18.3176 -18.3141 -18.3135 -18.3107 -18.3081
   -18.3037 -18.2993 -18.2985 -18.2925 -18.2889 -18.2877 -18.2866 -18.2795
   -18.2759 -18.2702 -18.2079 -18.2003 -18.1929 -18.1855 -18.1788 -18.1720
   -18.1621 -18.1327 -18.1239 -18.1228 -18.1148 -18.1092 -18.1091 -18.0988
   -18.0903 -18.0866 -18.0827 -18.0717 -18.0598 -18.0451 -18.0418 -18.0384
    -9.6018  -9.4527  -9.3653  -9.2918  -9.2624  -9.1598  -9.0964  -9.0607
    -9.0169  -8.9835  -8.9580  -8.9234  -8.8865  -8.8338  -8.7937  -8.7701
    -8.7656  -8.6702  -8.6611  -8.6367  -8.5812  -8.5645  -8.5527  -8.4311
    -5.2867  -5.2800  -5.2722  -5.2644  -5.2574  -5.2520  -5.2442  -5.2398
    -5.2334  -5.2062  -5.2029  -5.1838  -5.1204  -5.1114  -5.1065  -5.1023
    -5.0964  -5.0792  -5.0395  -5.0027  -4.9962  -4.9901  -4.9781  -4.9674
    -4.2273  -4.0474  -3.9505  -3.8042  -3.6064  -3.4656  -3.3476  -3.1595
    -0.7449  -0.6303  -0.5863  -0.5458  -0.3647  -0.2469  -0.2249  -0.1609
    -0.1074   0.0411   0.0760   0.1261   0.3018   0.3556   0.4176   0.4598
     0.4988   0.5535   0.5729   0.6042   0.6305   0.6890   0.7181   0.7446
     0.8012   0.8236   0.8885   0.9159   0.9703   0.9838   1.0598   1.0894
     1.1676   1.1938   1.2334   1.2421   1.2720   1.3160   1.3419   1.3625
     1.4142   1.4384   1.4598   1.4922   1.5254   1.5493   1.5705   1.6069
     1.6316   1.6606   1.6846   1.7102   1.7583   1.7669   1.7846   1.8119
     1.8249   1.8350   1.8817   1.9107   1.9345   1.9586   1.9938   2.0249
     2.0526   2.0970   2.1261   2.1605   2.3756   2.4917   2.5780   2.6421

          k =-0.1250 0.3750-0.3750 (132616 PWs)   bands (ev):

   -18.5099 -18.5025 -18.4712 -18.4310 -18.3504 -18.3382 -18.3315 -18.3295
   -18.3279 -18.3190 -18.3181 -18.3176 -18.3141 -18.3135 -18.3107 -18.3081
   -18.3037 -18.2993 -18.2985 -18.2925 -18.2889 -18.2877 -18.2866 -18.2795
   -18.2759 -18.2702 -18.2079 -18.2003 -18.1929 -18.1855 -18.1788 -18.1720
   -18.1621 -18.1327 -18.1239 -18.1228 -18.1148 -18.1092 -18.1091 -18.0988
   -18.0903 -18.0866 -18.0827 -18.0717 -18.0598 -18.0451 -18.0418 -18.0384
    -9.6021  -9.4509  -9.3665  -9.2930  -9.2612  -9.1633  -9.0908  -9.0614
    -9.0185  -8.9884  -8.9522  -8.9230  -8.8868  -8.8343  -8.7952  -8.7706
    -8.7633  -8.6757  -8.6558  -8.6370  -8.5814  -8.5648  -8.5525  -8.4310
    -5.2867  -5.2800  -5.2723  -5.2644  -5.2574  -5.2521  -5.2442  -5.2398
    -5.2333  -5.2064  -5.2028  -5.1839  -5.1203  -5.1114  -5.1066  -5.1024
    -5.0964  -5.0792  -5.0395  -5.0027  -4.9961  -4.9898  -4.9780  -4.9675
    -4.2321  -4.0430  -3.9497  -3.7821  -3.6414  -3.4573  -3.3489  -3.1536
    -0.7398  -0.6287  -0.5892  -0.5496  -0.3802  -0.2423  -0.2215  -0.1499
    -0.1127   0.0474   0.0865   0.1065   0.3021   0.3566   0.4160   0.4687
     0.4900   0.5384   0.5737   0.6160   0.6478   0.6764   0.7271   0.7564
     0.7976   0.8231   0.8822   0.9129   0.9673   0.9878   1.0474   1.1215
     1.1483   1.1913   1.2141   1.2396   1.2804   1.3124   1.3428   1.3751
     1.4129   1.4261   1.4673   1.5018   1.5280   1.5656   1.5903   1.6023
     1.6395   1.6582   1.6864   1.6932   1.7323   1.7519   1.7755   1.7992
     1.8189   1.8426   1.8784   1.9107   1.9427   1.9731   1.9944   2.0326
     2.0596   2.0943   2.1374   2.1787   2.3438   2.4748   2.5712   2.6659

          k = 0.1250-0.3750-0.3750 (132616 PWs)   bands (ev):

   -18.5099 -18.5025 -18.4712 -18.4310 -18.3504 -18.3382 -18.3315 -18.3295
   -18.3279 -18.3190 -18.3181 -18.3176 -18.3141 -18.3135 -18.3107 -18.3081
   -18.3037 -18.2993 -18.2985 -18.2925 -18.2889 -18.2877 -18.2866 -18.2795
   -18.2759 -18.2702 -18.2079 -18.2003 -18.1929 -18.1855 -18.1788 -18.1720
   -18.1621 -18.1327 -18.1239 -18.1228 -18.1148 -18.1092 -18.1091 -18.0988
   -18.0903 -18.0866 -18.0827 -18.0717 -18.0598 -18.0451 -18.0418 -18.0384
    -9.6018  -9.4524  -9.3668  -9.2884  -9.2640  -9.1604  -9.0923  -9.0678
    -9.0139  -8.9843  -8.9573  -8.9222  -8.8871  -8.8344  -8.7936  -8.7708
    -8.7641  -8.6692  -8.6623  -8.6378  -8.5808  -8.5645  -8.5523  -8.4311
    -5.2880  -5.2787  -5.2723  -5.2637  -5.2574  -5.2529  -5.2442  -5.2398
    -5.2334  -5.2061  -5.2029  -5.1840  -5.1203  -5.1112  -5.1066  -5.1025
    -5.0964  -5.0792  -5.0396  -5.0027  -4.9961  -4.9899  -4.9780  -4.9675
    -4.2272  -4.0337  -3.9750  -3.7876  -3.6219  -3.4391  -3.3657  -3.1585
    -0.7416  -0.6271  -0.5875  -0.5519  -0.3467  -0.2805  -0.1916  -0.1788
    -0.0538  -0.0080   0.0298   0.1488   0.3098   0.3426   0.4201   0.4629
     0.4977   0.5491   0.5991   0.6184   0.6453   0.6897   0.6955   0.7584
     0.7953   0.8440   0.8626   0.9130   0.9590   0.9818   1.0282   1.1194
     1.1621   1.1999   1.2309   1.2534   1.2820   1.3199   1.3346   1.3760
     1.4042   1.4427   1.4584   1.5000   1.5205   1.5609   1.5819   1.5898
     1.6334   1.6618   1.6811   1.7022   1.7223   1.7532   1.7725   1.8082
     1.8420   1.8509   1.8782   1.8981   1.9476   1.9693   2.0098   2.0226
     2.0644   2.0921   2.1205   2.1621   2.3759   2.4985   2.5587   2.6448

          k = 0.3750 0.1250-0.3750 (132616 PWs)   bands (ev):

   -18.5099 -18.5025 -18.4712 -18.4310 -18.3504 -18.3382 -18.3315 -18.3295
   -18.3279 -18.3190 -18.3181 -18.3176 -18.3141 -18.3135 -18.3107 -18.3081
   -18.3037 -18.2993 -18.2985 -18.2925 -18.2889 -18.2877 -18.2866 -18.2795
   -18.2759 -18.2702 -18.2079 -18.2003 -18.1929 -18.1855 -18.1788 -18.1720
   -18.1621 -18.1327 -18.1239 -18.1228 -18.1148 -18.1092 -18.1091 -18.0988
   -18.0903 -18.0866 -18.0827 -18.0717 -18.0598 -18.0451 -18.0418 -18.0384
    -9.6017  -9.4406  -9.3956  -9.2731  -9.2444  -9.1855  -9.0989  -9.0393
    -9.0243  -8.9854  -8.9606  -8.9121  -8.8890  -8.8632  -8.7822  -8.7658
    -8.7511  -8.6804  -8.6597  -8.6381  -8.5787  -8.5631  -8.5562  -8.4307
    -5.2854  -5.2815  -5.2724  -5.2641  -5.2576  -5.2528  -5.2444  -5.2397
    -5.2331  -5.2060  -5.2023  -5.1835  -5.1205  -5.1121  -5.1068  -5.1014
    -5.0960  -5.0796  -5.0397  -5.0031  -4.9959  -4.9900  -4.9786  -4.9667
    -4.2252  -4.0548  -3.9322  -3.7408  -3.7033  -3.4522  -3.3480  -3.1613
    -0.6884  -0.6157  -0.5778  -0.5330  -0.4313  -0.2962  -0.2176  -0.1425
    -0.0860  -0.0218   0.0857   0.1075   0.3524   0.3755   0.4015   0.4750
     0.5003   0.5518   0.5831   0.6317   0.6542   0.6909   0.7112   0.7347
     0.7787   0.8716   0.9057   0.9258   0.9447   0.9703   1.0230   1.0504
     1.1344   1.1697   1.2061   1.2541   1.3114   1.3409   1.3553   1.3852
     1.4136   1.4395   1.4572   1.4934   1.5151   1.5615   1.6006   1.6281
     1.6458   1.6592   1.6891   1.7043   1.7191   1.7672   1.7875   1.8245
     1.8453   1.8638   1.8851   1.9131   1.9356   1.9680   1.9927   2.0103
     2.0511   2.0749   2.1397   2.1699   2.2818   2.4591   2.5244   2.6060

          k =-0.3750-0.1250-0.3750 (132616 PWs)   bands (ev):

   -18.5099 -18.5025 -18.4712 -18.4310 -18.3504 -18.3382 -18.3315 -18.3295
   -18.3279 -18.3190 -18.3181 -18.3176 -18.3141 -18.3135 -18.3107 -18.3081
   -18.3037 -18.2993 -18.2985 -18.2925 -18.2889 -18.2877 -18.2866 -18.2795
   -18.2759 -18.2702 -18.2079 -18.2003 -18.1929 -18.1855 -18.1788 -18.1720
   -18.1621 -18.1327 -18.1239 -18.1228 -18.1148 -18.1092 -18.1091 -18.0988
   -18.0903 -18.0866 -18.0827 -18.0717 -18.0598 -18.0451 -18.0418 -18.0384
    -9.6020  -9.4378  -9.3981  -9.2740  -9.2451  -9.1811  -9.1022  -9.0505
    -9.0118  -8.9855  -8.9608  -8.9103  -8.8916  -8.8616  -8.7855  -8.7664
    -8.7450  -8.6881  -8.6536  -8.6402  -8.5792  -8.5625  -8.5561  -8.4307
    -5.2871  -5.2798  -5.2725  -5.2634  -5.2576  -5.2536  -5.2443  -5.2397
    -5.2330  -5.2062  -5.2022  -5.1836  -5.1205  -5.1120  -5.1069  -5.1014
    -5.0960  -5.0795  -5.0397  -5.0030  -4.9960  -4.9899  -4.9786  -4.9666
    -4.2347  -4.0146  -3.9533  -3.8000  -3.6351  -3.4628  -3.3706  -3.1460
    -0.6722  -0.6206  -0.5870  -0.5428  -0.4220  -0.2998  -0.2504  -0.1667
    -0.0380   0.0180   0.0600   0.1234   0.3234   0.3705   0.4228   0.4811
     0.5093   0.5329   0.5765   0.6211   0.6633   0.6920   0.7201   0.7523
     0.7932   0.8487   0.8995   0.9144   0.9464   0.9728   1.0014   1.0537
     1.1293   1.1763   1.2234   1.2542   1.2880   1.3405   1.3584   1.3861
     1.4334   1.4489   1.4683   1.5026   1.5192   1.5577   1.5875   1.6106
     1.6234   1.6702   1.7012   1.7222   1.7395   1.7643   1.7744   1.7932
     1.8193   1.8654   1.8886   1.9300   1.9484   1.9653   1.9826   2.0265
     2.0488   2.0792   2.1318   2.1617   2.3333   2.3905   2.5181   2.6395

          k = 0.3750-0.1250 0.3750 (132616 PWs)   bands (ev):

   -18.5099 -18.5025 -18.4712 -18.4310 -18.3504 -18.3382 -18.3315 -18.3295
   -18.3279 -18.3190 -18.3181 -18.3176 -18.3141 -18.3135 -18.3107 -18.3081
   -18.3037 -18.2993 -18.2985 -18.2925 -18.2889 -18.2877 -18.2866 -18.2795
   -18.2759 -18.2702 -18.2079 -18.2003 -18.1929 -18.1855 -18.1788 -18.1720
   -18.1621 -18.1327 -18.1239 -18.1228 -18.1148 -18.1092 -18.1091 -18.0988
   -18.0903 -18.0866 -18.0827 -18.0717 -18.0598 -18.0451 -18.0418 -18.0384
    -9.6021  -9.4366  -9.3994  -9.2745  -9.2424  -9.1869  -9.0966  -9.0413
    -9.0246  -8.9875  -8.9569  -8.9118  -8.8888  -8.8633  -8.7843  -8.7671
    -8.7462  -8.6869  -8.6547  -8.6386  -8.5792  -8.5631  -8.5561  -8.4307
    -5.2854  -5.2815  -5.2725  -5.2641  -5.2576  -5.2529  -5.2444  -5.2396
    -5.2330  -5.2063  -5.2023  -5.1835  -5.1203  -5.1121  -5.1069  -5.1014
    -5.0960  -5.0796  -5.0397  -5.0031  -4.9959  -4.9898  -4.9785  -4.9668
    -4.2352  -4.0137  -3.9581  -3.7858  -3.6500  -3.4578  -3.3692  -3.1476
    -0.6766  -0.6165  -0.5747  -0.5394  -0.4446  -0.3022  -0.2405  -0.1608
    -0.0392   0.0080   0.0764   0.1148   0.3205   0.3758   0.3915   0.4845
     0.5184   0.5335   0.5743   0.6314   0.6672   0.6881   0.7237   0.7452
     0.8076   0.8560   0.8947   0.9050   0.9468   0.9707   1.0139   1.0551
     1.1249   1.1768   1.2111   1.2468   1.3045   1.3409   1.3615   1.3816
     1.4204   1.4456   1.4656   1.5066   1.5431   1.5676   1.5920   1.6218
     1.6437   1.6573   1.6816   1.7102   1.7235   1.7440   1.7791   1.8069
     1.8261   1.8422   1.8877   1.9219   1.9500   1.9605   1.9945   2.0492
     2.0570   2.0829   2.1170   2.1658   2.3408   2.3980   2.5034   2.6326

          k =-0.3750 0.1250 0.3750 (132616 PWs)   bands (ev):

   -18.5099 -18.5025 -18.4712 -18.4310 -18.3504 -18.3382 -18.3315 -18.3295
   -18.3279 -18.3190 -18.3181 -18.3176 -18.3141 -18.3135 -18.3107 -18.3081
   -18.3037 -18.2993 -18.2985 -18.2925 -18.2889 -18.2877 -18.2866 -18.2795
   -18.2759 -18.2702 -18.2079 -18.2003 -18.1929 -18.1855 -18.1788 -18.1720
   -18.1621 -18.1327 -18.1239 -18.1228 -18.1148 -18.1092 -18.1091 -18.0988
   -18.0903 -18.0866 -18.0827 -18.0717 -18.0598 -18.0451 -18.0418 -18.0384
    -9.6017  -9.4397  -9.3975  -9.2702  -9.2457  -9.1845  -9.1008  -9.0479
    -9.0144  -8.9863  -8.9607  -8.9106  -8.8911  -8.8619  -8.7831  -8.7661
    -8.7497  -8.6803  -8.6602  -8.6394  -8.5786  -8.5626  -8.5560  -8.4307
    -5.2872  -5.2797  -5.2724  -5.2634  -5.2576  -5.2536  -5.2444  -5.2397
    -5.2331  -5.2060  -5.2023  -5.1836  -5.1204  -5.1120  -5.1070  -5.1015
    -5.0960  -5.0795  -5.0397  -5.0030  -4.9960  -4.9898  -4.9785  -4.9668
    -4.2244  -4.0534  -3.9375  -3.7436  -3.6954  -3.4511  -3.3512  -3.1612
    -0.6758  -0.6192  -0.5831  -0.5363  -0.4243  -0.3002  -0.2233  -0.1346
    -0.0895  -0.0314   0.0623   0.1312   0.3421   0.3852   0.4128   0.4703
     0.4940   0.5511   0.5894   0.6334   0.6628   0.6773   0.7171   0.7509
     0.7931   0.8606   0.8884   0.9127   0.9445   0.9746   1.0090   1.0474
     1.1313   1.1898   1.2119   1.2618   1.2918   1.3443   1.3651   1.3964
     1.4268   1.4459   1.4730   1.4958   1.5177   1.5579   1.5744   1.5999
     1.6303   1.6562   1.6885   1.6985   1.7414   1.7657   1.7738   1.8040
     1.8506   1.8766   1.8898   1.9092   1.9488   1.9812   2.0056   2.0122
     2.0617   2.0774   2.1331   2.1824   2.2510   2.4437   2.5373   2.6009

          k = 0.3750-0.3750 0.1250 (132616 PWs)   bands (ev):

   -18.5099 -18.5025 -18.4712 -18.4310 -18.3504 -18.3382 -18.3315 -18.3295
   -18.3279 -18.3190 -18.3181 -18.3176 -18.3141 -18.3135 -18.3107 -18.3081
   -18.3037 -18.2993 -18.2985 -18.2925 -18.2889 -18.2877 -18.2866 -18.2795
   -18.2759 -18.2702 -18.2079 -18.2003 -18.1929 -18.1855 -18.1788 -18.1720
   -18.1621 -18.1327 -18.1239 -18.1228 -18.1148 -18.1092 -18.1091 -18.0988
   -18.0903 -18.0866 -18.0827 -18.0717 -18.0598 -18.0451 -18.0418 -18.0384
    -9.6024  -9.4328  -9.4004  -9.2825  -9.2344  -9.1727  -9.1283  -9.0581
    -9.0127  -8.9798  -8.9436  -8.9095  -8.8843  -8.8506  -8.8026  -8.7640
    -8.7519  -8.6883  -8.6551  -8.6395  -8.5755  -8.5644  -8.5558  -8.4305
    -5.2858  -5.2807  -5.2726  -5.2645  -5.2573  -5.2525  -5.2446  -5.2398
    -5.2327  -5.2063  -5.2024  -5.1841  -5.1202  -5.1115  -5.1063  -5.1023
    -5.0966  -5.0790  -5.0396  -5.0027  -4.9964  -4.9900  -4.9786  -4.9669
    -4.2293  -4.0398  -3.9467  -3.7395  -3.6691  -3.4865  -3.3686  -3.1429
    -0.6908  -0.5996  -0.5729  -0.4948  -0.3756  -0.3130  -0.2747  -0.1765
    -0.1155  -0.0432   0.0918   0.1403   0.3015   0.3629   0.4189   0.4606
     0.5357   0.5627   0.6089   0.6284   0.6592   0.6869   0.7337   0.7595
     0.7985   0.8694   0.9023   0.9352   0.9573   1.0364   1.0450   1.0926
     1.1317   1.1419   1.1775   1.2332   1.2517   1.2861   1.3056   1.3786
     1.3941   1.4308   1.4793   1.4986   1.5462   1.5816   1.6048   1.6179
     1.6457   1.6671   1.6933   1.7053   1.7269   1.7415   1.7547   1.7799
     1.8016   1.8585   1.8891   1.9088   1.9484   1.9666   1.9925   2.0009
     2.0457   2.0911   2.1398   2.1713   2.3569   2.4583   2.5230   2.6606

          k =-0.3750-0.3750-0.1250 (132616 PWs)   bands (ev):

   -18.5099 -18.5025 -18.4712 -18.4310 -18.3504 -18.3382 -18.3315 -18.3295
   -18.3279 -18.3190 -18.3181 -18.3176 -18.3141 -18.3135 -18.3107 -18.3081
   -18.3037 -18.2993 -18.2985 -18.2925 -18.2889 -18.2877 -18.2866 -18.2795
   -18.2759 -18.2702 -18.2079 -18.2003 -18.1929 -18.1855 -18.1788 -18.1720
   -18.1621 -18.1327 -18.1239 -18.1228 -18.1148 -18.1092 -18.1091 -18.0988
   -18.0903 -18.0866 -18.0827 -18.0717 -18.0598 -18.0451 -18.0418 -18.0384
    -9.6023  -9.4345  -9.3982  -9.2826  -9.2366  -9.1642  -9.1360  -9.0605
    -9.0087  -8.9793  -8.9448  -8.9074  -8.8870  -8.8501  -8.8040  -8.7630
    -8.7486  -8.6924  -8.6535  -8.6401  -8.5755  -8.5636  -8.5561  -8.4305
    -5.2873  -5.2792  -5.2727  -5.2638  -5.2573  -5.2533  -5.2446  -5.2398
    -5.2327  -5.2063  -5.2023  -5.1842  -5.1203  -5.1113  -5.1063  -5.1023
    -5.0966  -5.0789  -5.0396  -5.0027  -4.9965  -4.9900  -4.9787  -4.9668
    -4.2306  -4.0133  -3.9787  -3.7271  -3.6800  -3.4640  -3.3889  -3.1395
    -0.6936  -0.5877  -0.5702  -0.5048  -0.3780  -0.3431  -0.2640  -0.1735
    -0.0889  -0.0575   0.0831   0.1654   0.3158   0.3675   0.4298   0.4729
     0.5126   0.5516   0.5863   0.6079   0.6612   0.7054   0.7199   0.7592
     0.8064   0.8796   0.9021   0.9273   0.9535   1.0088   1.0667   1.0937
     1.1180   1.1449   1.1846   1.2350   1.2582   1.2807   1.3282   1.3595
     1.4106   1.4438   1.4755   1.5017   1.5544   1.5618   1.6000   1.6242
     1.6428   1.6578   1.6700   1.7055   1.7297   1.7399   1.7743   1.7897
     1.8077   1.8772   1.8927   1.9082   1.9118   1.9641   1.9938   2.0266
     2.0547   2.0966   2.1217   2.1578   2.3444   2.4333   2.5520   2.6716

          k = 0.3750 0.3750-0.1250 (132616 PWs)   bands (ev):

   -18.5099 -18.5025 -18.4712 -18.4310 -18.3504 -18.3382 -18.3315 -18.3295
   -18.3279 -18.3190 -18.3181 -18.3176 -18.3141 -18.3135 -18.3107 -18.3081
   -18.3037 -18.2993 -18.2985 -18.2925 -18.2889 -18.2877 -18.2866 -18.2795
   -18.2759 -18.2702 -18.2079 -18.2003 -18.1929 -18.1855 -18.1788 -18.1720
   -18.1621 -18.1327 -18.1239 -18.1228 -18.1148 -18.1092 -18.1091 -18.0988
   -18.0903 -18.0866 -18.0827 -18.0717 -18.0598 -18.0451 -18.0418 -18.0384
    -9.6020  -9.4368  -9.3966  -9.2827  -9.2345  -9.1702  -9.1309  -9.0574
    -9.0132  -8.9770  -8.9472  -8.9098  -8.8840  -8.8507  -8.8030  -8.7636
    -8.7503  -8.6893  -8.6554  -8.6390  -8.5755  -8.5634  -8.5566  -8.4305
    -5.2859  -5.2807  -5.2726  -5.2645  -5.2573  -5.2525  -5.2447  -5.2398
    -5.2328  -5.2061  -5.2025  -5.1841  -5.1203  -5.1115  -5.1063  -5.1022
    -5.0966  -5.0790  -5.0396  -5.0027  -4.9964  -4.9902  -4.9786  -4.9668
    -4.2265  -4.0113  -3.9902  -3.7471  -3.6521  -3.4516  -3.3986  -3.1453
    -0.6996  -0.5886  -0.5599  -0.5008  -0.3760  -0.3350  -0.2687  -0.1877
    -0.0973  -0.0374   0.0698   0.1696   0.3132   0.3707   0.4230   0.4672
     0.5197   0.5398   0.5774   0.6211   0.6764   0.6836   0.7348   0.7750
     0.8068   0.8619   0.8811   0.9249   0.9617   1.0388   1.0672   1.0866
     1.1241   1.1595   1.1897   1.2159   1.2583   1.2875   1.3228   1.3568
     1.4109   1.4332   1.4742   1.5021   1.5271   1.5753   1.5900   1.6186
     1.6435   1.6567   1.6730   1.7069   1.7349   1.7516   1.7609   1.8101
     1.8336   1.8791   1.8893   1.8993   1.9127   1.9645   1.9926   2.0294
     2.0480   2.0859   2.1133   2.1507   2.3909   2.4407   2.5432   2.6430

          k =-0.3750 0.3750 0.1250 (132616 PWs)   bands (ev):

   -18.5099 -18.5025 -18.4712 -18.4310 -18.3504 -18.3382 -18.3315 -18.3295
   -18.3279 -18.3190 -18.3181 -18.3176 -18.3141 -18.3135 -18.3107 -18.3081
   -18.3037 -18.2993 -18.2985 -18.2925 -18.2889 -18.2877 -18.2866 -18.2795
   -18.2759 -18.2702 -18.2079 -18.2003 -18.1929 -18.1855 -18.1788 -18.1720
   -18.1621 -18.1327 -18.1239 -18.1228 -18.1148 -18.1092 -18.1091 -18.0988
   -18.0903 -18.0866 -18.0827 -18.0717 -18.0598 -18.0451 -18.0418 -18.0384
    -9.6020  -9.4353  -9.3994  -9.2804  -9.2349  -9.1652  -9.1369  -9.0615
    -9.0086  -8.9758  -8.9483  -8.9088  -8.8863  -8.8488  -8.8017  -8.7628
    -8.7542  -8.6859  -8.6565  -8.6411  -8.5754  -8.5635  -8.5557  -8.4305
    -5.2873  -5.2792  -5.2726  -5.2638  -5.2573  -5.2533  -5.2447  -5.2398
    -5.2328  -5.2060  -5.2025  -5.1842  -5.1202  -5.1113  -5.1064  -5.1024
    -5.0966  -5.0789  -5.0396  -5.0027  -4.9964  -4.9900  -4.9786  -4.9669
    -4.2240  -4.0362  -3.9650  -3.7577  -3.6352  -3.4761  -3.3815  -3.1472
    -0.6958  -0.5862  -0.5665  -0.5010  -0.3882  -0.3054  -0.2664  -0.1658
    -0.1288  -0.0521   0.0740   0.1504   0.3070   0.3637   0.4247   0.4536
     0.5193   0.5659   0.6000   0.6429   0.6637   0.7139   0.7235   0.7677
     0.7822   0.8640   0.8856   0.9425   0.9694   1.0271   1.0533   1.0796
     1.1318   1.1426   1.1844   1.2401   1.2530   1.2916   1.3265   1.3627
     1.3854   1.4374   1.4707   1.5067   1.5440   1.5772   1.5985   1.6208
     1.6412   1.6510   1.6756   1.7121   1.7194   1.7433   1.7660   1.7989
     1.8201   1.8619   1.8895   1.9067   1.9477   1.9657   1.9898   2.0067
     2.0551   2.0820   2.1296   2.1502   2.3753   2.4761   2.5204   2.6434

          k =-0.3750-0.3750 0.3750 (132612 PWs)   bands (ev):

   -18.5099 -18.5025 -18.4712 -18.4310 -18.3504 -18.3382 -18.3315 -18.3295
   -18.3279 -18.3190 -18.3181 -18.3176 -18.3141 -18.3135 -18.3107 -18.3081
   -18.3037 -18.2993 -18.2985 -18.2925 -18.2889 -18.2877 -18.2866 -18.2795
   -18.2759 -18.2702 -18.2079 -18.2003 -18.1929 -18.1855 -18.1788 -18.1720
   -18.1621 -18.1327 -18.1239 -18.1228 -18.1148 -18.1092 -18.1091 -18.0988
   -18.0903 -18.0866 -18.0827 -18.0717 -18.0598 -18.0451 -18.0418 -18.0384
    -9.6001  -9.4352  -9.3911  -9.2785  -9.2531  -9.1730  -9.1141  -9.0634
    -9.0402  -8.9729  -8.9486  -8.9115  -8.8856  -8.8350  -8.7904  -8.7614
    -8.7514  -8.6811  -8.6588  -8.6367  -8.5813  -8.5655  -8.5590  -8.4317
    -5.2867  -5.2802  -5.2725  -5.2643  -5.2574  -5.2522  -5.2445  -5.2399
    -5.2333  -5.2061  -5.2024  -5.1839  -5.1202  -5.1115  -5.1062  -5.1021
    -5.0965  -5.0792  -5.0395  -5.0027  -4.9961  -4.9900  -4.9785  -4.9665
    -4.1112  -3.9733  -3.8788  -3.8153  -3.6449  -3.5809  -3.4872  -3.3362
    -0.5423  -0.4122  -0.3664  -0.3344  -0.2832  -0.2121  -0.1668  -0.1084
    -0.0643   0.0530   0.0867   0.1939   0.2702   0.3443   0.3723   0.4126
     0.4551   0.4795   0.5301   0.5804   0.6045   0.6267   0.7016   0.7331
     0.8202   0.8481   0.8649   0.9268   0.9482   0.9687   0.9941   1.0466
     1.0789   1.1181   1.1366   1.1810   1.2153   1.2458   1.2614   1.3106
     1.4012   1.4330   1.4661   1.5126   1.5292   1.5477   1.6026   1.6421
     1.6792   1.7074   1.7227   1.7385   1.7588   1.7642   1.7914   1.8234
     1.8554   1.8680   1.8950   1.9143   1.9281   1.9462   1.9658   1.9830
     2.0097   2.0458   2.0960   2.1089   2.1743   2.2077   2.2902   2.3705

          k =-0.3750 0.3750-0.3750 (132612 PWs)   bands (ev):

   -18.5099 -18.5025 -18.4712 -18.4310 -18.3504 -18.3382 -18.3315 -18.3295
   -18.3279 -18.3190 -18.3181 -18.3176 -18.3141 -18.3135 -18.3107 -18.3081
   -18.3037 -18.2993 -18.2985 -18.2925 -18.2889 -18.2877 -18.2866 -18.2795
   -18.2759 -18.2702 -18.2079 -18.2003 -18.1929 -18.1855 -18.1788 -18.1720
   -18.1621 -18.1327 -18.1239 -18.1228 -18.1148 -18.1092 -18.1091 -18.0988
   -18.0903 -18.0866 -18.0827 -18.0717 -18.0598 -18.0451 -18.0418 -18.0384
    -9.6005  -9.4316  -9.3943  -9.2787  -9.2525  -9.1770  -9.1092  -9.0632
    -9.0420  -8.9761  -8.9445  -8.9110  -8.8858  -8.8353  -8.7918  -8.7623
    -8.7483  -8.6854  -8.6555  -8.6370  -8.5815  -8.5657  -8.5588  -8.4317
    -5.2867  -5.2802  -5.2725  -5.2643  -5.2575  -5.2522  -5.2444  -5.2399
    -5.2332  -5.2063  -5.2023  -5.1839  -5.1201  -5.1115  -5.1063  -5.1022
    -5.0965  -5.0792  -5.0395  -5.0027  -4.9961  -4.9898  -4.9785  -4.9667
    -4.1258  -3.9435  -3.8885  -3.7834  -3.7013  -3.5724  -3.4881  -3.3245
    -0.5281  -0.4109  -0.3700  -0.3593  -0.2847  -0.2162  -0.1536  -0.1301
    -0.0474   0.0572   0.1023   0.1822   0.2852   0.3261   0.3517   0.4279
     0.4705   0.4968   0.5231   0.5608   0.6036   0.6512   0.6845   0.7243
     0.8401   0.8630   0.8827   0.8958   0.9325   0.9694   0.9880   1.0555
     1.0736   1.1157   1.1436   1.1692   1.1962   1.2506   1.2747   1.3129
     1.4084   1.4332   1.4743   1.4958   1.5521   1.5938   1.6157   1.6240
     1.6739   1.6950   1.7071   1.7357   1.7527   1.7683   1.7852   1.8066
     1.8306   1.8456   1.8898   1.9067   1.9334   1.9695   1.9801   2.0084
     2.0268   2.0527   2.0707   2.1191   2.1658   2.2241   2.2481   2.3919

          k = 0.3750-0.3750-0.3750 (132612 PWs)   bands (ev):

   -18.5099 -18.5025 -18.4712 -18.4310 -18.3504 -18.3382 -18.3315 -18.3295
   -18.3279 -18.3190 -18.3181 -18.3176 -18.3141 -18.3135 -18.3107 -18.3081
   -18.3037 -18.2993 -18.2985 -18.2925 -18.2889 -18.2877 -18.2866 -18.2795
   -18.2759 -18.2702 -18.2079 -18.2003 -18.1929 -18.1855 -18.1788 -18.1720
   -18.1621 -18.1327 -18.1239 -18.1228 -18.1148 -18.1092 -18.1091 -18.0988
   -18.0903 -18.0866 -18.0827 -18.0717 -18.0598 -18.0451 -18.0418 -18.0384
    -9.6001  -9.4342  -9.3933  -9.2754  -9.2543  -9.1711  -9.1175  -9.0685
    -9.0341  -8.9730  -8.9490  -8.9106  -8.8861  -8.8344  -8.7914  -8.7613
    -8.7503  -8.6809  -8.6594  -8.6381  -8.5811  -8.5651  -8.5586  -8.4317
    -5.2880  -5.2789  -5.2725  -5.2637  -5.2575  -5.2530  -5.2445  -5.2399
    -5.2333  -5.2060  -5.2024  -5.1841  -5.1202  -5.1114  -5.1063  -5.1023
    -5.0965  -5.0792  -5.0396  -5.0026  -4.9961  -4.9899  -4.9784  -4.9666
    -4.1092  -3.9622  -3.9125  -3.7946  -3.6419  -3.5725  -3.5001  -3.3348
    -0.5349  -0.4056  -0.3711  -0.3444  -0.2638  -0.2234  -0.1640  -0.1064
    -0.0591   0.0119   0.0640   0.2215   0.2905   0.3343   0.3750   0.4198
     0.4438   0.4819   0.5535   0.5781   0.6073   0.6335   0.6927   0.7293
     0.8130   0.8430   0.8802   0.9121   0.9442   0.9667   0.9932   1.0139
     1.0906   1.1106   1.1607   1.1901   1.2069   1.2529   1.2902   1.3127
     1.3875   1.4264   1.4604   1.5157   1.5393   1.5902   1.6063   1.6330
     1.6498   1.6972   1.7058   1.7219   1.7543   1.7699   1.8006   1.8066
     1.8448   1.8645   1.8989   1.9113   1.9334   1.9778   1.9848   1.9982
     2.0254   2.0396   2.0618   2.1082   2.1671   2.2151   2.2872   2.3683

     highest occupied level (ev):     3.1920

!    total energy              =   -2256.28063029 Ry
     estimated scf accuracy    <          8.0E-11 Ry

     The total energy is the sum of the following terms:
     one-electron contribution =    -993.03947986 Ry
     hartree contribution      =     624.59648958 Ry
     xc contribution           =    -647.53266267 Ry
     ewald contribution        =   -1240.30497734 Ry

     convergence has been achieved in  15 iterations

     Forces acting on atoms (cartesian axes, Ry/au):

     atom    1 type  1   force =    -0.00067796    0.00085107    0.00039445
     atom    2 type  2   force =    -0.01397241   -0.00829269   -0.00673658
     atom    3 type  3   force =    -0.03580852    0.00140409    0.00428892
     atom    4 type  3   force =     0.00464250   -0.00081967   -0.00484838
     atom    5 type  3   force =     0.00284814   -0.03911594    0.00406165
     atom    6 type  1   force =    -0.00285193   -0.00229740    0.00072782
     atom    7 type  2   force =    -0.00921664   -0.01697701    0.00934859
     atom    8 type  3   force =     0.00782674   -0.00099668   -0.00721889
     atom    9 type  3   force =    -0.00836463    0.00081950    0.01433444
     atom   10 type  3   force =     0.00352425    0.03042438   -0.00702530
     atom   11 type  1   force =    -0.00029989    0.00084943   -0.00385602
     atom   12 type  2   force =     0.01195126    0.04104075    0.00610301
     atom   13 type  3   force =     0.00162843   -0.00563138    0.00095605
     atom   14 type  3   force =     0.00134650   -0.00164602    0.00515428
     atom   15 type  3   force =     0.00326081    0.01652370    0.00185023
     atom   16 type  1   force =    -0.00089665    0.01114587    0.01084148
     atom   17 type  2   force =    -0.02701065    0.00491169   -0.01449304
     atom   18 type  3   force =    -0.00647578   -0.00491740   -0.00379251
     atom   19 type  3   force =     0.00464579   -0.00083823    0.00579304
     atom   20 type  3   force =     0.00350924   -0.02492738   -0.00741189
     atom   21 type  1   force =     0.00071666   -0.00210274    0.00436609
     atom   22 type  2   force =     0.02447085   -0.01107372    0.00267707
     atom   23 type  3   force =     0.01552561    0.00242302   -0.00523793
     atom   24 type  3   force =    -0.00818145   -0.00108287    0.00742927
     atom   25 type  3   force =    -0.00181817   -0.01962717   -0.00652648
     atom   26 type  1   force =     0.00242981    0.00432808   -0.00094409
     atom   27 type  2   force =     0.01075478   -0.00358322   -0.00781918
     atom   28 type  3   force =     0.00603095   -0.00177695    0.00789138
     atom   29 type  3   force =     0.00465318    0.00778823   -0.02504712
     atom   30 type  3   force =    -0.00532200    0.00502131    0.00572222
     atom   31 type  1   force =     0.00000032    0.00058795   -0.00167521
     atom   32 type  2   force =    -0.00758639    0.02509997    0.00009553
     atom   33 type  3   force =    -0.00465939   -0.00044387    0.00183828
     atom   34 type  3   force =     0.00090242    0.00524546    0.00370228
     atom   35 type  3   force =     0.00033790    0.00028329    0.00777086
     atom   36 type  1   force =    -0.00297219   -0.00097083    0.00557733
     atom   37 type  2   force =     0.03187417   -0.00347009    0.00076462
     atom   38 type  3   force =     0.00479944    0.00073555   -0.00585606
     atom   39 type  3   force =    -0.00665179   -0.01054440    0.00274630
     atom   40 type  3   force =    -0.00491329    0.00165233   -0.00594650

     Total force =     0.119149     Total SCF correction =     0.000047


     Computing stress (Cartesian axis) and pressure

          total   stress  (Ry/bohr**3)                   (kbar)     P=       -6.61
  -0.00004717  -0.00000432  -0.00000154           -6.94       -0.64       -0.23
  -0.00000432  -0.00003852  -0.00000217           -0.64       -5.67       -0.32
  -0.00000154  -0.00000217  -0.00004912           -0.23       -0.32       -7.23

 
     init_run     :     20.02s CPU     17.06s WALL (       1 calls)
     electrons    :    193.74s CPU    210.03s WALL (       1 calls)
     forces       :      8.71s CPU      3.92s WALL (       1 calls)
     stress       :     29.97s CPU     30.40s WALL (       1 calls)

     Called by init_run:
     wfcinit      :     12.16s CPU     14.01s WALL (       1 calls)
                                       14.01s GPU  (       1 calls)
     potinit      :      4.52s CPU      1.39s WALL (       1 calls)
     hinit0       :      2.79s CPU      0.99s WALL (       1 calls)

     Called by electrons:
     c_bands      :    114.02s CPU    168.27s WALL (      16 calls)
     sum_band     :     20.74s CPU     20.60s WALL (      16 calls)
                                       20.60s GPU  (      16 calls)
     v_of_rho     :     54.53s CPU     16.37s WALL (      16 calls)
     mix_rho      :      6.38s CPU      4.88s WALL (      16 calls)

     Called by c_bands:
     init_us_2    :      2.50s CPU      3.19s WALL (     280 calls)
                                        3.18s GPU  (     280 calls)
     cegterg      :     74.18s CPU    125.44s WALL (     128 calls)

     Called by *egterg:
     cdiaghg      :     14.01s CPU     25.45s WALL (     644 calls)
                                       25.42s GPU  (     644 calls)
     h_psi        :     49.43s CPU     72.59s WALL (     660 calls)
                                       72.16s GPU  (     660 calls)
     g_psi        :      0.00s CPU      0.35s WALL (     524 calls)
                                        0.34s GPU  (     524 calls)

     Called by h_psi:
     h_psi:calbec :      0.29s CPU      9.71s WALL (     660 calls)
                                        9.70s GPU  (     660 calls)
     vloc_psi     :     36.03s CPU     53.24s WALL (     660 calls)
                                       52.34s GPU  (     660 calls)
     add_vuspsi   :      0.32s CPU      9.55s WALL (     660 calls)
                                        9.54s GPU  (     660 calls)

     General routines
     calbec       :      0.29s CPU      0.39s WALL (     700 calls)
     fft          :     25.55s CPU      6.53s WALL (     185 calls)
                                        0.00s GPU  (       6 calls)
     ffts         :      2.58s CPU      0.68s WALL (      16 calls)
     fftw         :      0.71s CPU     61.79s WALL (   10308 calls)
                                       46.21s GPU  (   10308 calls)
 
     Parallel routines
 
     PWSCF        :   4m13.11s CPU   4m22.15s WALL

 
   This run was terminated on:  21:19:51  22Apr2021            

=------------------------------------------------------------------------------=
   JOB DONE.
=------------------------------------------------------------------------------=
