
     Program PWSCF v.6.7MaX starts on 22Apr2021 at 22: 8:44 

     This program is part of the open-source Quantum ESPRESSO suite
     for quantum simulation of materials; please cite
         "P. Giannozzi et al., J. Phys.:Condens. Matter 21 395502 (2009);
         "P. Giannozzi et al., J. Phys.:Condens. Matter 29 465901 (2017);
         "P. Giannozzi et al., J. Chem. Phys. 152 154105 (2020);
          URL http://www.quantum-espresso.org", 
     in publications or presentations arising from this work. More details at
     http://www.quantum-espresso.org/quote

     Parallel version (MPI & OpenMP), running on      16 processor cores
     Number of MPI processes:                 4
     Threads/MPI process:                     4

     MPI processes distributed on     1 nodes
     K-points division:     npool     =       4
     Reading input from ESP_24.pwi
Warning: card &CELL ignored
Warning: card / ignored

     Current dimensions of program PWSCF are:
     Max number of different atomic species (ntypx) = 10
     Max number of k-points (npk) =  40000
     Max angular momentum in pseudopotentials (lmaxx) =  3
     Message from routine read_pp_mesh:
     mesh size missing, using the one in header
     Message from routine read_pp_mesh:
     mesh size missing, using the one in header
     Message from routine read_pp_mesh:
     mesh size missing, using the one in header

     Subspace diagonalization in iterative solution of the eigenvalue problem:
     a serial algorithm will be used

 
     G-vector sticks info
     --------------------
     sticks:   dense  smooth     PW     G-vecs:    dense   smooth      PW
     Sum       12589   12589   3289              1061107  1061107  140905
 
     Using Slab Decomposition
 


     bravais-lattice index     =            0
     lattice parameter (alat)  =      23.7585  a.u.
     unit-cell volume          =   13410.8736 (a.u.)^3
     number of atoms/cell      =           40
     number of atomic types    =            3
     number of electrons       =       352.00
     number of Kohn-Sham states=          176
     kinetic-energy cutoff     =      70.0000  Ry
     charge density cutoff     =     280.0000  Ry
     scf convergence threshold =      1.0E-10
     mixing beta               =       0.7000
     number of iterations used =            8  plain     mixing
     Exchange-correlation= PBESOL
                           (   1   4  10   8   0   0   0)

     GPU acceleration is ACTIVE.


     celldm(1)=  23.758500  celldm(2)=   0.000000  celldm(3)=   0.000000
     celldm(4)=   0.000000  celldm(5)=   0.000000  celldm(6)=   0.000000

     crystal axes: (cart. coord. in units of alat)
               a(1) = (   1.000000   0.000000   0.000000 )  
               a(2) = (   0.000000   1.000000   0.000000 )  
               a(3) = (   0.000000   0.000000   1.000000 )  

     reciprocal axes: (cart. coord. in units 2 pi/alat)
               b(1) = (  1.000000  0.000000  0.000000 )  
               b(2) = (  0.000000  1.000000  0.000000 )  
               b(3) = (  0.000000  0.000000  1.000000 )  


     PseudoPot. # 1 for Cs read from file:
     /m100/home/userexternal/lmonacel/espresso/pseudo/Cs-nc-pbesol.upf
     MD5 check sum: 9d2f2206a14dc5b3b3f3fbfae186bed4
     Pseudo is Norm-conserving + core correction, Zval =  9.0
     Generated using ONCVPSP code by D. R. Hamann
     Using radial grid of 2384 points,  8 beta functions with: 
                l(1) =   0
                l(2) =   0
                l(3) =   1
                l(4) =   1
                l(5) =   2
                l(6) =   2
                l(7) =   3
                l(8) =   3

     PseudoPot. # 2 for Sn read from file:
     /m100/home/userexternal/lmonacel/espresso/pseudo/Sn-nc-pbesol.upf
     MD5 check sum: c2995d571af40102bfea7461443d92cf
     Pseudo is Norm-conserving + core correction, Zval = 14.0
     Generated using ONCVPSP code by D. R. Hamann
     Using radial grid of 1628 points,  6 beta functions with: 
                l(1) =   0
                l(2) =   0
                l(3) =   1
                l(4) =   1
                l(5) =   2
                l(6) =   2

     PseudoPot. # 3 for I  read from file:
     /m100/home/userexternal/lmonacel/espresso/pseudo/I-nc-pbesol.upf
     MD5 check sum: 80ed5ceb2eb9c553cfb6760a299d9c5b
     Pseudo is Norm-conserving + core correction, Zval =  7.0
     Generated using ONCVPSP code by D. R. Hamann
     Using radial grid of 1182 points,  6 beta functions with: 
                l(1) =   0
                l(2) =   0
                l(3) =   1
                l(4) =   1
                l(5) =   2
                l(6) =   2

     atomic species   valence    mass     pseudopotential
        Cs             9.00   132.90545     Cs( 1.00)
        Sn            14.00   118.71000     Sn( 1.00)
        I              7.00   126.90447     I ( 1.00)

     No symmetry found



   Cartesian axes

     site n.     atom                  positions (alat units)
         1           Cs  tau(   1) = (   0.2734373   0.2442289   0.2745248  )
         2           Sn  tau(   2) = (  -0.0080591   0.0058105   0.0200416  )
         3           I   tau(   3) = (   0.2510136   0.0211939   0.0074868  )
         4           I   tau(   4) = (  -0.0139407  -0.0165297   0.2555557  )
         5           I   tau(   5) = (  -0.0060433   0.2619749   0.0212828  )
         6           Cs  tau(   6) = (   0.2449044   0.2337662   0.7522412  )
         7           Sn  tau(   7) = (   0.0101439  -0.0264986   0.5217565  )
         8           I   tau(   8) = (   0.2538143  -0.0621469   0.4778797  )
         9           I   tau(   9) = (   0.0172124  -0.0018418   0.7606714  )
        10           I   tau(  10) = (   0.0045864   0.2324301   0.4910235  )
        11           Cs  tau(  11) = (   0.2480527   0.7554718   0.2147447  )
        12           Sn  tau(  12) = (  -0.0031478   0.4986788  -0.0046687  )
        13           I   tau(  13) = (   0.2607766   0.5110007   0.0375110  )
        14           I   tau(  14) = (  -0.0334057   0.4926823   0.2531787  )
        15           I   tau(  15) = (  -0.0171654   0.7630487   0.0175619  )
        16           Cs  tau(  16) = (   0.2447610   0.7548973   0.7483901  )
        17           Sn  tau(  17) = (  -0.0128290   0.4714148   0.4893221  )
        18           I   tau(  18) = (   0.2398882   0.4922975   0.4833213  )
        19           I   tau(  19) = (   0.0491001   0.5004854   0.7538904  )
        20           I   tau(  20) = (   0.0055686   0.7367318   0.5067950  )
        21           Cs  tau(  21) = (   0.7459855   0.2779471   0.2704950  )
        22           Sn  tau(  22) = (   0.5067575   0.0144179   0.0019971  )
        23           I   tau(  23) = (   0.7414634   0.0045991   0.0021920  )
        24           I   tau(  24) = (   0.5017783  -0.0130489   0.2504019  )
        25           I   tau(  25) = (   0.5076478   0.2607456   0.0114702  )
        26           Cs  tau(  26) = (   0.7185813   0.2413916   0.7231225  )
        27           Sn  tau(  27) = (   0.5088617  -0.0231189   0.4991939  )
        28           I   tau(  28) = (   0.7419388   0.0080243   0.5184776  )
        29           I   tau(  29) = (   0.4977785  -0.0222359   0.7518201  )
        30           I   tau(  30) = (   0.4827586   0.2486231   0.5094407  )
        31           Cs  tau(  31) = (   0.7900206   0.7965542   0.2537823  )
        32           Sn  tau(  32) = (   0.4908264   0.5273060  -0.0177915  )
        33           I   tau(  33) = (   0.7509439   0.5370622  -0.0658463  )
        34           I   tau(  34) = (   0.5052648   0.5198881   0.2452059  )
        35           I   tau(  35) = (   0.4995565   0.7638390  -0.0153138  )
        36           Cs  tau(  36) = (   0.7508206   0.7384356   0.7367724  )
        37           Sn  tau(  37) = (   0.4908442   0.4942829   0.4872249  )
        38           I   tau(  38) = (   0.7504774   0.5214345   0.5188173  )
        39           I   tau(  39) = (   0.4897618   0.4790379   0.7487102  )
        40           I   tau(  40) = (   0.5174084   0.7512644   0.4883540  )

     number of k points=    32
                       cart. coord. in units 2pi/alat
        k(    1) = (   0.1250000   0.1250000   0.1250000), wk =   0.0625000
        k(    2) = (   0.1250000   0.1250000   0.3750000), wk =   0.0625000
        k(    3) = (   0.1250000   0.3750000   0.3750000), wk =   0.0625000
        k(    4) = (   0.3750000   0.3750000   0.3750000), wk =   0.0625000
        k(    5) = (  -0.1250000  -0.1250000   0.1250000), wk =   0.0625000
        k(    6) = (  -0.1250000   0.1250000  -0.1250000), wk =   0.0625000
        k(    7) = (   0.1250000  -0.1250000  -0.1250000), wk =   0.0625000
        k(    8) = (  -0.1250000  -0.1250000   0.3750000), wk =   0.0625000
        k(    9) = (  -0.1250000   0.1250000  -0.3750000), wk =   0.0625000
        k(   10) = (   0.1250000  -0.1250000  -0.3750000), wk =   0.0625000
        k(   11) = (   0.3750000  -0.1250000   0.1250000), wk =   0.0625000
        k(   12) = (  -0.3750000  -0.1250000  -0.1250000), wk =   0.0625000
        k(   13) = (   0.3750000   0.1250000  -0.1250000), wk =   0.0625000
        k(   14) = (  -0.3750000   0.1250000   0.1250000), wk =   0.0625000
        k(   15) = (  -0.1250000   0.3750000   0.1250000), wk =   0.0625000
        k(   16) = (  -0.1250000  -0.3750000  -0.1250000), wk =   0.0625000
        k(   17) = (   0.1250000   0.3750000  -0.1250000), wk =   0.0625000
        k(   18) = (   0.1250000  -0.3750000   0.1250000), wk =   0.0625000
        k(   19) = (  -0.1250000  -0.3750000   0.3750000), wk =   0.0625000
        k(   20) = (  -0.1250000   0.3750000  -0.3750000), wk =   0.0625000
        k(   21) = (   0.1250000  -0.3750000  -0.3750000), wk =   0.0625000
        k(   22) = (   0.3750000   0.1250000  -0.3750000), wk =   0.0625000
        k(   23) = (  -0.3750000  -0.1250000  -0.3750000), wk =   0.0625000
        k(   24) = (   0.3750000  -0.1250000   0.3750000), wk =   0.0625000
        k(   25) = (  -0.3750000   0.1250000   0.3750000), wk =   0.0625000
        k(   26) = (   0.3750000  -0.3750000   0.1250000), wk =   0.0625000
        k(   27) = (  -0.3750000  -0.3750000  -0.1250000), wk =   0.0625000
        k(   28) = (   0.3750000   0.3750000  -0.1250000), wk =   0.0625000
        k(   29) = (  -0.3750000   0.3750000   0.1250000), wk =   0.0625000
        k(   30) = (  -0.3750000  -0.3750000   0.3750000), wk =   0.0625000
        k(   31) = (  -0.3750000   0.3750000  -0.3750000), wk =   0.0625000
        k(   32) = (   0.3750000  -0.3750000  -0.3750000), wk =   0.0625000

     Dense  grid:  1061107 G-vectors     FFT dimensions: ( 128, 128, 128)

     Estimated max dynamical RAM per process >       6.82 GB

     Estimated total dynamical RAM >      27.27 GB

     Initial potential from superposition of free atoms

     starting charge  351.69472, renormalised to  352.00000
     Starting wfcs are  208 randomized atomic wfcs

     total cpu time spent up to now is       17.9 secs

     Self-consistent Calculation

     iteration #  1     ecut=    70.00 Ry     beta= 0.70
     Davidson diagonalization with overlap
     ethr =  1.00E-02,  avg # of iterations =  2.0

     Threshold (ethr) on eigenvalues was too large:
     Diagonalizing with lowered threshold

     Davidson diagonalization with overlap
     ethr =  2.12E-04,  avg # of iterations =  4.0

     total cpu time spent up to now is       38.9 secs

     total energy              =   -2256.03917715 Ry
     estimated scf accuracy    <       0.64472011 Ry

     iteration #  2     ecut=    70.00 Ry     beta= 0.70
     Davidson diagonalization with overlap
     ethr =  1.83E-04,  avg # of iterations =  3.3

     total cpu time spent up to now is       51.6 secs

     total energy              =   -2256.24085884 Ry
     estimated scf accuracy    <       0.27729853 Ry

     iteration #  3     ecut=    70.00 Ry     beta= 0.70
     Davidson diagonalization with overlap
     ethr =  7.88E-05,  avg # of iterations =  2.4

     total cpu time spent up to now is       63.3 secs

     total energy              =   -2256.29330521 Ry
     estimated scf accuracy    <       0.01717457 Ry

     iteration #  4     ecut=    70.00 Ry     beta= 0.70
     Davidson diagonalization with overlap
     ethr =  4.88E-06,  avg # of iterations =  4.2

     total cpu time spent up to now is       76.7 secs

     total energy              =   -2256.29974027 Ry
     estimated scf accuracy    <       0.00646175 Ry

     iteration #  5     ecut=    70.00 Ry     beta= 0.70
     Davidson diagonalization with overlap
     ethr =  1.84E-06,  avg # of iterations =  3.5

     total cpu time spent up to now is       88.8 secs

     total energy              =   -2256.30093124 Ry
     estimated scf accuracy    <       0.00096808 Ry

     iteration #  6     ecut=    70.00 Ry     beta= 0.70
     Davidson diagonalization with overlap
     ethr =  2.75E-07,  avg # of iterations =  3.9

     total cpu time spent up to now is      101.3 secs

     total energy              =   -2256.30110619 Ry
     estimated scf accuracy    <       0.00015414 Ry

     iteration #  7     ecut=    70.00 Ry     beta= 0.70
     Davidson diagonalization with overlap
     ethr =  4.38E-08,  avg # of iterations =  4.5

     total cpu time spent up to now is      114.8 secs

     total energy              =   -2256.30115929 Ry
     estimated scf accuracy    <       0.00001244 Ry

     iteration #  8     ecut=    70.00 Ry     beta= 0.70
     Davidson diagonalization with overlap
     ethr =  3.53E-09,  avg # of iterations =  5.1

     total cpu time spent up to now is      129.4 secs

     total energy              =   -2256.30116615 Ry
     estimated scf accuracy    <       0.00000331 Ry

     iteration #  9     ecut=    70.00 Ry     beta= 0.70
     Davidson diagonalization with overlap
     ethr =  9.39E-10,  avg # of iterations =  4.6

     total cpu time spent up to now is      143.0 secs

     total energy              =   -2256.30116721 Ry
     estimated scf accuracy    <       0.00000062 Ry

     iteration # 10     ecut=    70.00 Ry     beta= 0.70
     Davidson diagonalization with overlap
     ethr =  1.77E-10,  avg # of iterations =  4.8

     total cpu time spent up to now is      158.3 secs

     total energy              =   -2256.30116751 Ry
     estimated scf accuracy    <       0.00000012 Ry

     iteration # 11     ecut=    70.00 Ry     beta= 0.70
     Davidson diagonalization with overlap
     ethr =  3.28E-11,  avg # of iterations =  4.3

     total cpu time spent up to now is      172.8 secs

     total energy              =   -2256.30116756 Ry
     estimated scf accuracy    <       0.00000002 Ry

     iteration # 12     ecut=    70.00 Ry     beta= 0.70
     Davidson diagonalization with overlap
     ethr =  6.54E-12,  avg # of iterations =  5.3

     total cpu time spent up to now is      188.1 secs

     total energy              =   -2256.30116757 Ry
     estimated scf accuracy    <          5.8E-09 Ry

     iteration # 13     ecut=    70.00 Ry     beta= 0.70
     Davidson diagonalization with overlap
     ethr =  1.66E-12,  avg # of iterations =  4.5

     total cpu time spent up to now is      202.0 secs

     total energy              =   -2256.30116757 Ry
     estimated scf accuracy    <          4.4E-10 Ry

     iteration # 14     ecut=    70.00 Ry     beta= 0.70
     Davidson diagonalization with overlap
     ethr =  1.25E-13,  avg # of iterations =  7.5

     total cpu time spent up to now is      222.1 secs

     total energy              =   -2256.30116757 Ry
     estimated scf accuracy    <          1.5E-10 Ry

     iteration # 15     ecut=    70.00 Ry     beta= 0.70
     Davidson diagonalization with overlap
     ethr =  1.00E-13,  avg # of iterations =  2.3

     total cpu time spent up to now is      233.3 secs

     End of self-consistent calculation

          k = 0.1250 0.1250 0.1250 (132670 PWs)   bands (ev):

   -18.5601 -18.4794 -18.4620 -18.4108 -18.3999 -18.3392 -18.3316 -18.3276
   -18.3164 -18.3102 -18.2874 -18.2825 -18.2737 -18.2697 -18.2648 -18.2644
   -18.2601 -18.2574 -18.2571 -18.2545 -18.2539 -18.2512 -18.2503 -18.2469
   -18.2443 -18.2439 -18.2436 -18.2423 -18.2390 -18.2364 -18.2351 -18.1898
   -18.1794 -18.1401 -18.1304 -18.1291 -18.1194 -18.1174 -18.1136 -18.1123
   -18.1117 -18.1116 -18.1077 -18.1063 -18.1051 -18.1009 -18.0965 -18.0901
    -9.4150  -9.3015  -9.2458  -9.2065  -9.1231  -9.0848  -9.0724  -9.0333
    -9.0081  -8.9942  -8.9370  -8.9071  -8.8970  -8.8749  -8.8490  -8.8268
    -8.7976  -8.7522  -8.7183  -8.7026  -8.6511  -8.6298  -8.5587  -8.5273
    -5.3300  -5.3179  -5.3109  -5.2551  -5.2506  -5.2340  -5.2294  -5.2192
    -5.2050  -5.1793  -5.1765  -5.1730  -5.1656  -5.1598  -5.1451  -5.0321
    -5.0209  -5.0193  -5.0105  -4.9886  -4.9804  -4.9790  -4.9681  -4.9630
    -4.4398  -3.9761  -3.9166  -3.8353  -3.4196  -3.3602  -3.2861  -2.7511
    -0.7879  -0.7374  -0.6681  -0.6417  -0.5367  -0.4971  -0.4786  -0.4536
    -0.3980  -0.3639  -0.3201  -0.0681   0.4507   0.4821   0.5207   0.6350
     0.6756   0.7101   0.7363   0.7631   0.7920   0.8806   0.9076   0.9558
     0.9836   1.0296   1.0744   1.0994   1.1099   1.1410   1.1793   1.1919
     1.2185   1.2342   1.2658   1.2887   1.3058   1.3255   1.3425   1.3723
     1.3990   1.4119   1.4301   1.4662   1.4948   1.5108   1.5240   1.5702
     1.5847   1.5995   1.6183   1.6624   1.6733   1.6802   1.7137   1.7222
     1.7641   1.7968   1.8777   1.9283   1.9828   2.0171   2.0660   2.0961
     2.1227   2.1753   2.2072   2.3421   2.6552   2.7209   2.7999   3.1554

          k = 0.1250 0.1250 0.3750 (132608 PWs)   bands (ev):

   -18.5601 -18.4794 -18.4620 -18.4108 -18.3999 -18.3392 -18.3316 -18.3276
   -18.3164 -18.3102 -18.2874 -18.2825 -18.2737 -18.2697 -18.2648 -18.2644
   -18.2601 -18.2574 -18.2571 -18.2545 -18.2539 -18.2512 -18.2503 -18.2469
   -18.2443 -18.2439 -18.2436 -18.2423 -18.2390 -18.2364 -18.2351 -18.1898
   -18.1794 -18.1401 -18.1302 -18.1292 -18.1194 -18.1174 -18.1136 -18.1123
   -18.1117 -18.1116 -18.1077 -18.1063 -18.1051 -18.1009 -18.0965 -18.0901
    -9.3934  -9.3139  -9.2508  -9.1977  -9.1603  -9.0966  -9.0578  -9.0447
    -9.0081  -8.9845  -8.9334  -8.9085  -8.8954  -8.8646  -8.8520  -8.8174
    -8.7896  -8.7419  -8.7165  -8.6922  -8.6619  -8.6396  -8.5656  -8.5278
    -5.3300  -5.3178  -5.3108  -5.2550  -5.2503  -5.2340  -5.2293  -5.2192
    -5.2048  -5.1796  -5.1759  -5.1727  -5.1665  -5.1599  -5.1455  -5.0323
    -5.0206  -5.0187  -5.0108  -4.9890  -4.9809  -4.9786  -4.9674  -4.9638
    -4.3120  -4.0966  -3.8279  -3.7331  -3.5912  -3.4801  -3.2175  -2.9668
    -0.7775  -0.6687  -0.6042  -0.5463  -0.5153  -0.4419  -0.4148  -0.3253
    -0.1735  -0.0653   0.0128   0.1367   0.4104   0.4627   0.4867   0.5248
     0.5638   0.6133   0.6463   0.6763   0.7094   0.7415   0.7572   0.8148
     0.8678   0.9104   0.9643   1.0291   1.0853   1.1240   1.1507   1.1794
     1.2080   1.2293   1.2413   1.2857   1.2989   1.3399   1.3484   1.3674
     1.4126   1.4181   1.4649   1.4833   1.5211   1.5412   1.5499   1.5754
     1.6053   1.6202   1.6289   1.6730   1.6848   1.7294   1.7481   1.7668
     1.7883   1.8036   1.8452   1.8862   1.9042   1.9394   1.9970   2.0195
     2.0929   2.1489   2.1737   2.3354   2.4120   2.5237   2.7443   2.8844

          k = 0.1250 0.3750 0.3750 (132616 PWs)   bands (ev):

   -18.5601 -18.4794 -18.4620 -18.4108 -18.3999 -18.3392 -18.3316 -18.3276
   -18.3164 -18.3102 -18.2874 -18.2825 -18.2737 -18.2697 -18.2648 -18.2644
   -18.2600 -18.2574 -18.2571 -18.2545 -18.2539 -18.2512 -18.2503 -18.2469
   -18.2443 -18.2439 -18.2436 -18.2423 -18.2390 -18.2364 -18.2351 -18.1898
   -18.1794 -18.1401 -18.1302 -18.1292 -18.1193 -18.1174 -18.1136 -18.1123
   -18.1117 -18.1116 -18.1077 -18.1063 -18.1051 -18.1009 -18.0965 -18.0901
    -9.3744  -9.3071  -9.2635  -9.2025  -9.1762  -9.1166  -9.0823  -9.0326
    -8.9945  -8.9829  -8.9277  -8.9058  -8.8875  -8.8647  -8.8386  -8.8119
    -8.7793  -8.7519  -8.7215  -8.6901  -8.6589  -8.6450  -8.5639  -8.5350
    -5.3300  -5.3178  -5.3108  -5.2549  -5.2502  -5.2340  -5.2291  -5.2191
    -5.2051  -5.1795  -5.1767  -5.1736  -5.1661  -5.1591  -5.1450  -5.0323
    -5.0207  -5.0188  -5.0106  -4.9889  -4.9808  -4.9787  -4.9676  -4.9637
    -4.1831  -4.0019  -3.9078  -3.7251  -3.6529  -3.4443  -3.3833  -3.1811
    -0.6441  -0.5733  -0.4946  -0.4132  -0.3425  -0.2453  -0.1826  -0.1492
    -0.0670  -0.0298   0.0681   0.2133   0.3107   0.4182   0.4684   0.4864
     0.5141   0.5473   0.5924   0.6098   0.6302   0.6541   0.6924   0.7421
     0.8103   0.8693   0.9331   0.9705   1.0241   1.0526   1.0737   1.1120
     1.1287   1.1784   1.2155   1.2365   1.2726   1.3059   1.3300   1.3521
     1.3798   1.4466   1.4742   1.4964   1.5288   1.5497   1.5703   1.5912
     1.6207   1.6427   1.6713   1.7062   1.7235   1.7391   1.7453   1.7775
     1.8077   1.8273   1.8459   1.8630   1.9090   1.9404   1.9637   1.9870
     2.0058   2.0661   2.0803   2.2100   2.2986   2.4506   2.4862   2.5634

          k = 0.3750 0.3750 0.3750 (132612 PWs)   bands (ev):

   -18.5601 -18.4794 -18.4620 -18.4108 -18.3999 -18.3392 -18.3316 -18.3276
   -18.3164 -18.3102 -18.2873 -18.2825 -18.2737 -18.2697 -18.2648 -18.2644
   -18.2600 -18.2574 -18.2571 -18.2545 -18.2539 -18.2512 -18.2503 -18.2469
   -18.2443 -18.2439 -18.2436 -18.2423 -18.2390 -18.2364 -18.2351 -18.1898
   -18.1794 -18.1401 -18.1302 -18.1292 -18.1193 -18.1174 -18.1136 -18.1123
   -18.1117 -18.1116 -18.1077 -18.1063 -18.1051 -18.1009 -18.0965 -18.0901
    -9.3532  -9.3106  -9.2594  -9.2173  -9.1848  -9.1312  -9.0919  -9.0457
    -8.9936  -8.9726  -8.9156  -8.8936  -8.8801  -8.8668  -8.8374  -8.8062
    -8.7811  -8.7483  -8.7259  -8.6861  -8.6606  -8.6472  -8.5644  -8.5404
    -5.3300  -5.3178  -5.3109  -5.2550  -5.2502  -5.2331  -5.2298  -5.2192
    -5.2053  -5.1794  -5.1767  -5.1734  -5.1660  -5.1592  -5.1449  -5.0320
    -5.0212  -5.0188  -5.0105  -4.9892  -4.9807  -4.9782  -4.9676  -4.9636
    -4.0608  -3.9360  -3.8233  -3.7645  -3.6753  -3.5861  -3.4703  -3.3541
    -0.4119  -0.3874  -0.2840  -0.2661  -0.2211  -0.1495  -0.1320  -0.1061
    -0.0484  -0.0153   0.0969   0.2507   0.2877   0.3476   0.4042   0.4183
     0.4947   0.5231   0.5299   0.5601   0.5917   0.6121   0.6409   0.6621
     0.8611   0.8826   0.9463   0.9603   0.9900   1.0172   1.0375   1.0499
     1.0651   1.1076   1.1428   1.1894   1.2286   1.2381   1.2658   1.3061
     1.3476   1.4558   1.4732   1.4983   1.5279   1.6001   1.6159   1.6293
     1.6672   1.6882   1.7066   1.7374   1.7457   1.7769   1.7822   1.7972
     1.8109   1.8347   1.8478   1.8541   1.8879   1.9223   1.9527   1.9640
     1.9876   2.0226   2.0477   2.0946   2.1319   2.1747   2.2840   2.3251

          k =-0.1250-0.1250 0.1250 (132670 PWs)   bands (ev):

   -18.5601 -18.4794 -18.4620 -18.4108 -18.3999 -18.3392 -18.3316 -18.3276
   -18.3164 -18.3102 -18.2874 -18.2825 -18.2737 -18.2697 -18.2648 -18.2644
   -18.2601 -18.2574 -18.2571 -18.2545 -18.2539 -18.2512 -18.2503 -18.2469
   -18.2443 -18.2439 -18.2436 -18.2423 -18.2390 -18.2364 -18.2351 -18.1898
   -18.1794 -18.1401 -18.1304 -18.1291 -18.1194 -18.1174 -18.1136 -18.1123
   -18.1117 -18.1116 -18.1077 -18.1063 -18.1051 -18.1009 -18.0965 -18.0901
    -9.4154  -9.2991  -9.2490  -9.2045  -9.1237  -9.0909  -9.0710  -9.0258
    -9.0093  -8.9954  -8.9369  -8.9068  -8.8957  -8.8767  -8.8411  -8.8358
    -8.7984  -8.7517  -8.7160  -8.7053  -8.6492  -8.6299  -8.5587  -8.5276
    -5.3300  -5.3178  -5.3110  -5.2552  -5.2505  -5.2340  -5.2293  -5.2192
    -5.2049  -5.1793  -5.1759  -5.1730  -5.1668  -5.1595  -5.1448  -5.0321
    -5.0207  -5.0193  -5.0106  -4.9888  -4.9804  -4.9791  -4.9681  -4.9629
    -4.4400  -3.9682  -3.9273  -3.8331  -3.4231  -3.3497  -3.2920  -2.7516
    -0.7917  -0.7156  -0.6585  -0.6452  -0.5619  -0.5247  -0.4785  -0.4605
    -0.3983  -0.3492  -0.2899  -0.0739   0.4495   0.4845   0.5173   0.6309
     0.6787   0.7072   0.7374   0.7642   0.7889   0.8685   0.9111   0.9670
     0.9915   1.0330   1.0622   1.0825   1.1341   1.1589   1.1759   1.2031
     1.2148   1.2364   1.2661   1.2773   1.2986   1.3208   1.3472   1.3519
     1.3910   1.4046   1.4256   1.4565   1.4943   1.5190   1.5513   1.5708
     1.5817   1.6022   1.6305   1.6568   1.6787   1.6879   1.6930   1.7278
     1.7593   1.7897   1.8850   1.9368   1.9933   2.0218   2.0590   2.1000
     2.1255   2.1640   2.1975   2.3383   2.6597   2.7082   2.8097   3.1634

          k =-0.1250 0.1250-0.1250 (132670 PWs)   bands (ev):

   -18.5601 -18.4794 -18.4620 -18.4108 -18.3999 -18.3392 -18.3316 -18.3276
   -18.3164 -18.3102 -18.2874 -18.2825 -18.2737 -18.2697 -18.2648 -18.2644
   -18.2601 -18.2574 -18.2571 -18.2545 -18.2539 -18.2512 -18.2503 -18.2469
   -18.2443 -18.2439 -18.2436 -18.2423 -18.2390 -18.2364 -18.2351 -18.1898
   -18.1794 -18.1401 -18.1304 -18.1291 -18.1194 -18.1174 -18.1136 -18.1123
   -18.1117 -18.1116 -18.1077 -18.1063 -18.1051 -18.1009 -18.0965 -18.0901
    -9.4154  -9.2998  -9.2462  -9.2096  -9.1196  -9.0844  -9.0617  -9.0440
    -9.0168  -8.9908  -8.9400  -8.9045  -8.8950  -8.8725  -8.8435  -8.8301
    -8.7994  -8.7531  -8.7163  -8.7042  -8.6515  -8.6302  -8.5586  -8.5270
    -5.3301  -5.3179  -5.3109  -5.2551  -5.2506  -5.2340  -5.2293  -5.2192
    -5.2049  -5.1794  -5.1761  -5.1730  -5.1669  -5.1595  -5.1447  -5.0320
    -5.0209  -5.0192  -5.0106  -4.9886  -4.9804  -4.9790  -4.9680  -4.9631
    -4.4414  -3.9551  -3.9315  -3.8433  -3.4014  -3.3518  -3.3133  -2.7467
    -0.7872  -0.7278  -0.6749  -0.6493  -0.5384  -0.5020  -0.4818  -0.4565
    -0.3873  -0.3576  -0.3171  -0.0737   0.4503   0.4795   0.5183   0.6388
     0.6820   0.7053   0.7331   0.7621   0.7893   0.8994   0.9216   0.9520
     1.0016   1.0298   1.0408   1.0846   1.1213   1.1484   1.1688   1.2009
     1.2170   1.2442   1.2558   1.2850   1.2991   1.3275   1.3458   1.3589
     1.3859   1.4141   1.4552   1.4722   1.4852   1.5158   1.5434   1.5611
     1.5866   1.6014   1.6274   1.6442   1.6732   1.6847   1.7080   1.7196
     1.7566   1.7898   1.8663   1.9325   1.9974   2.0216   2.0627   2.0980
     2.1236   2.1801   2.2035   2.3330   2.6655   2.7304   2.7700   3.1824

          k = 0.1250-0.1250-0.1250 (132670 PWs)   bands (ev):

   -18.5601 -18.4794 -18.4620 -18.4108 -18.3999 -18.3392 -18.3316 -18.3276
   -18.3164 -18.3102 -18.2874 -18.2825 -18.2737 -18.2697 -18.2648 -18.2644
   -18.2601 -18.2574 -18.2571 -18.2545 -18.2539 -18.2512 -18.2503 -18.2469
   -18.2443 -18.2439 -18.2436 -18.2423 -18.2390 -18.2364 -18.2351 -18.1898
   -18.1794 -18.1401 -18.1304 -18.1291 -18.1194 -18.1174 -18.1136 -18.1123
   -18.1117 -18.1116 -18.1077 -18.1063 -18.1051 -18.1009 -18.0965 -18.0901
    -9.4154  -9.2999  -9.2448  -9.2106  -9.1215  -9.0874  -9.0646  -9.0408
    -9.0051  -8.9928  -8.9407  -8.9083  -8.8964  -8.8751  -8.8385  -8.8348
    -8.7964  -8.7527  -8.7167  -8.7072  -8.6480  -8.6296  -8.5602  -8.5267
    -5.3300  -5.3179  -5.3110  -5.2552  -5.2506  -5.2339  -5.2293  -5.2192
    -5.2050  -5.1792  -5.1766  -5.1732  -5.1656  -5.1598  -5.1450  -5.0320
    -5.0207  -5.0193  -5.0106  -4.9888  -4.9803  -4.9791  -4.9681  -4.9630
    -4.4409  -3.9551  -3.9331  -3.8426  -3.4031  -3.3513  -3.3110  -2.7473
    -0.7986  -0.7255  -0.6597  -0.6427  -0.5611  -0.5078  -0.4836  -0.4603
    -0.3864  -0.3475  -0.3025  -0.0693   0.4468   0.4846   0.5193   0.6331
     0.6673   0.7158   0.7344   0.7731   0.7848   0.8845   0.9040   0.9548
     1.0086   1.0290   1.0551   1.1054   1.1152   1.1442   1.1619   1.1984
     1.2104   1.2284   1.2626   1.2867   1.3098   1.3216   1.3327   1.3693
     1.3926   1.4136   1.4382   1.4767   1.4905   1.5154   1.5366   1.5653
     1.5955   1.6050   1.6306   1.6423   1.6650   1.6828   1.7009   1.7276
     1.7475   1.8072   1.8769   1.9332   1.9961   2.0197   2.0506   2.0948
     2.1268   2.1825   2.2148   2.3242   2.6946   2.7154   2.7682   3.1736

          k =-0.1250-0.1250 0.3750 (132608 PWs)   bands (ev):

   -18.5601 -18.4794 -18.4620 -18.4108 -18.3999 -18.3392 -18.3316 -18.3276
   -18.3164 -18.3102 -18.2874 -18.2825 -18.2737 -18.2697 -18.2648 -18.2644
   -18.2601 -18.2574 -18.2571 -18.2545 -18.2539 -18.2512 -18.2503 -18.2469
   -18.2443 -18.2439 -18.2436 -18.2423 -18.2390 -18.2364 -18.2351 -18.1898
   -18.1794 -18.1401 -18.1302 -18.1292 -18.1194 -18.1174 -18.1136 -18.1123
   -18.1117 -18.1116 -18.1077 -18.1063 -18.1051 -18.1009 -18.0965 -18.0901
    -9.3941  -9.3110  -9.2546  -9.1926  -9.1649  -9.0971  -9.0636  -9.0343
    -9.0095  -8.9868  -8.9308  -8.9100  -8.8922  -8.8662  -8.8525  -8.8198
    -8.7899  -8.7415  -8.7139  -8.6968  -8.6583  -8.6399  -8.5657  -8.5281
    -5.3299  -5.3177  -5.3109  -5.2551  -5.2502  -5.2340  -5.2293  -5.2193
    -5.2048  -5.1796  -5.1752  -5.1724  -5.1681  -5.1596  -5.1452  -5.0323
    -5.0205  -5.0187  -5.0109  -4.9892  -4.9808  -4.9787  -4.9674  -4.9637
    -4.3126  -4.0946  -3.8357  -3.7226  -3.6005  -3.4737  -3.2179  -2.9677
    -0.7788  -0.6615  -0.5924  -0.5530  -0.5134  -0.4597  -0.4266  -0.3164
    -0.1854  -0.0356   0.0252   0.1199   0.4060   0.4650   0.4911   0.5289
     0.5470   0.6073   0.6403   0.6808   0.6999   0.7344   0.7805   0.8137
     0.8764   0.9099   0.9682   1.0407   1.0763   1.1280   1.1434   1.1782
     1.1988   1.2378   1.2658   1.2813   1.2957   1.3307   1.3434   1.3622
     1.3956   1.4290   1.4576   1.4840   1.5105   1.5263   1.5637   1.5823
     1.6096   1.6183   1.6502   1.6700   1.7010   1.7120   1.7429   1.7529
     1.7851   1.8040   1.8672   1.9020   1.9220   1.9401   1.9748   2.0222
     2.0581   2.1566   2.1919   2.3126   2.4224   2.5211   2.7446   2.8945

          k =-0.1250 0.1250-0.3750 (132608 PWs)   bands (ev):

   -18.5601 -18.4794 -18.4620 -18.4108 -18.3999 -18.3392 -18.3316 -18.3276
   -18.3164 -18.3102 -18.2874 -18.2825 -18.2737 -18.2697 -18.2648 -18.2644
   -18.2601 -18.2574 -18.2571 -18.2545 -18.2539 -18.2512 -18.2503 -18.2469
   -18.2443 -18.2439 -18.2436 -18.2423 -18.2390 -18.2364 -18.2351 -18.1898
   -18.1794 -18.1401 -18.1302 -18.1292 -18.1194 -18.1174 -18.1136 -18.1123
   -18.1117 -18.1116 -18.1077 -18.1063 -18.1051 -18.1009 -18.0965 -18.0901
    -9.3938  -9.3132  -9.2513  -9.1980  -9.1583  -9.0947  -9.0644  -9.0330
    -9.0219  -8.9822  -8.9371  -8.9038  -8.8946  -8.8627  -8.8466  -8.8216
    -8.7913  -8.7432  -8.7144  -8.6920  -8.6623  -8.6408  -8.5652  -8.5278
    -5.3300  -5.3178  -5.3108  -5.2550  -5.2503  -5.2340  -5.2293  -5.2192
    -5.2048  -5.1796  -5.1753  -5.1724  -5.1681  -5.1596  -5.1451  -5.0322
    -5.0206  -5.0187  -5.0109  -4.9890  -4.9808  -4.9787  -4.9674  -4.9638
    -4.3139  -4.0958  -3.8190  -3.7418  -3.5731  -3.5016  -3.2169  -2.9627
    -0.7722  -0.6802  -0.6149  -0.5417  -0.4977  -0.4460  -0.4021  -0.3364
    -0.1882  -0.0523   0.0226   0.1161   0.4115   0.4644   0.4891   0.5224
     0.5585   0.6132   0.6470   0.6892   0.7061   0.7366   0.7629   0.8223
     0.8700   0.9181   0.9663   1.0313   1.1042   1.1175   1.1293   1.1812
     1.2085   1.2352   1.2434   1.2694   1.2896   1.3295   1.3585   1.3803
     1.3965   1.4195   1.4633   1.4921   1.5097   1.5311   1.5527   1.5847
     1.6086   1.6234   1.6518   1.6650   1.6922   1.7075   1.7402   1.7653
     1.7757   1.8002   1.8631   1.8956   1.9139   1.9427   1.9779   2.0127
     2.0839   2.1600   2.1990   2.3206   2.4139   2.4997   2.7490   2.9087

          k = 0.1250-0.1250-0.3750 (132608 PWs)   bands (ev):

   -18.5601 -18.4794 -18.4620 -18.4108 -18.3999 -18.3392 -18.3316 -18.3276
   -18.3164 -18.3102 -18.2874 -18.2825 -18.2737 -18.2697 -18.2648 -18.2644
   -18.2601 -18.2574 -18.2571 -18.2545 -18.2539 -18.2512 -18.2503 -18.2469
   -18.2443 -18.2439 -18.2436 -18.2423 -18.2390 -18.2364 -18.2351 -18.1898
   -18.1794 -18.1401 -18.1302 -18.1292 -18.1194 -18.1174 -18.1136 -18.1123
   -18.1117 -18.1116 -18.1077 -18.1063 -18.1051 -18.1009 -18.0965 -18.0901
    -9.3937  -9.3133  -9.2506  -9.1979  -9.1594  -9.1013  -9.0562  -9.0416
    -9.0110  -8.9813  -8.9358  -8.9069  -8.8972  -8.8681  -8.8419  -8.8233
    -8.7889  -8.7422  -8.7154  -8.6967  -8.6584  -8.6386  -8.5670  -8.5275
    -5.3299  -5.3178  -5.3109  -5.2551  -5.2503  -5.2339  -5.2293  -5.2192
    -5.2048  -5.1795  -5.1759  -5.1729  -5.1665  -5.1600  -5.1454  -5.0322
    -5.0204  -5.0187  -5.0109  -4.9892  -4.9808  -4.9787  -4.9674  -4.9638
    -4.3126  -4.0978  -3.8216  -3.7354  -3.5809  -3.4977  -3.2144  -2.9642
    -0.7752  -0.6774  -0.6129  -0.5352  -0.5074  -0.4655  -0.4119  -0.3157
    -0.1732  -0.0509   0.0151   0.1433   0.4023   0.4616   0.4977   0.5175
     0.5473   0.6163   0.6336   0.6815   0.7055   0.7238   0.7791   0.8239
     0.8610   0.9044   0.9758   1.0615   1.0767   1.1225   1.1450   1.1818
     1.2008   1.2260   1.2426   1.2611   1.3176   1.3347   1.3595   1.3654
     1.3993   1.4173   1.4519   1.4877   1.5117   1.5474   1.5584   1.5903
     1.6049   1.6164   1.6423   1.6724   1.6856   1.7116   1.7383   1.7478
     1.7864   1.8103   1.8581   1.8868   1.9180   1.9337   1.9948   2.0265
     2.0797   2.1502   2.2034   2.3128   2.4361   2.4929   2.7569   2.8937

          k = 0.3750-0.1250 0.1250 (132608 PWs)   bands (ev):

   -18.5601 -18.4794 -18.4620 -18.4108 -18.3999 -18.3392 -18.3316 -18.3276
   -18.3164 -18.3102 -18.2874 -18.2825 -18.2737 -18.2697 -18.2648 -18.2644
   -18.2601 -18.2574 -18.2571 -18.2545 -18.2539 -18.2512 -18.2503 -18.2469
   -18.2443 -18.2439 -18.2436 -18.2422 -18.2390 -18.2364 -18.2351 -18.1898
   -18.1794 -18.1401 -18.1304 -18.1291 -18.1194 -18.1174 -18.1136 -18.1123
   -18.1117 -18.1116 -18.1077 -18.1063 -18.1051 -18.1009 -18.0965 -18.0901
    -9.3901  -9.3294  -9.2440  -9.1935  -9.1397  -9.1053  -9.0654  -9.0457
    -9.0174  -8.9922  -8.9100  -8.9040  -8.8885  -8.8742  -8.8435  -8.8256
    -8.8004  -8.7447  -8.7226  -8.7050  -8.6427  -8.6343  -8.5606  -8.5354
    -5.3299  -5.3179  -5.3107  -5.2548  -5.2503  -5.2332  -5.2299  -5.2196
    -5.2051  -5.1794  -5.1762  -5.1729  -5.1668  -5.1596  -5.1448  -5.0319
    -5.0210  -5.0189  -5.0106  -4.9888  -4.9808  -4.9787  -4.9685  -4.9631
    -4.3192  -4.1077  -3.8140  -3.7347  -3.5632  -3.5224  -3.1907  -2.9469
    -0.7212  -0.7067  -0.6429  -0.6294  -0.5128  -0.4444  -0.4082  -0.3792
    -0.1426  -0.0784  -0.0104   0.1494   0.3950   0.4672   0.5120   0.5458
     0.5742   0.5990   0.6313   0.6551   0.7317   0.7550   0.8076   0.8461
     0.9081   0.9427   1.0075   1.0262   1.0621   1.0893   1.1189   1.1718
     1.1886   1.2146   1.2604   1.2798   1.3119   1.3216   1.3478   1.3706
     1.4137   1.4340   1.4666   1.4865   1.4946   1.5435   1.5654   1.5881
     1.5984   1.6191   1.6465   1.6687   1.7009   1.7144   1.7263   1.7680
     1.7972   1.8039   1.8504   1.9008   1.9169   1.9602   1.9971   2.0410
     2.0987   2.1189   2.1944   2.3045   2.3966   2.5519   2.7277   2.9380

          k =-0.3750-0.1250-0.1250 (132608 PWs)   bands (ev):

   -18.5601 -18.4794 -18.4620 -18.4108 -18.3999 -18.3392 -18.3316 -18.3276
   -18.3164 -18.3102 -18.2874 -18.2825 -18.2737 -18.2697 -18.2648 -18.2644
   -18.2601 -18.2574 -18.2571 -18.2545 -18.2539 -18.2512 -18.2503 -18.2469
   -18.2443 -18.2439 -18.2436 -18.2422 -18.2390 -18.2364 -18.2351 -18.1898
   -18.1794 -18.1401 -18.1304 -18.1291 -18.1194 -18.1174 -18.1136 -18.1123
   -18.1117 -18.1116 -18.1077 -18.1063 -18.1051 -18.1009 -18.0965 -18.0901
    -9.3894  -9.3308  -9.2440  -9.1880  -9.1467  -9.1066  -9.0751  -9.0231
    -9.0201  -8.9936  -8.9186  -8.8982  -8.8879  -8.8771  -8.8498  -8.8211
    -8.7996  -8.7434  -8.7247  -8.7033  -8.6431  -8.6341  -8.5596  -8.5363
    -5.3299  -5.3178  -5.3108  -5.2548  -5.2503  -5.2332  -5.2300  -5.2196
    -5.2051  -5.1793  -5.1767  -5.1730  -5.1656  -5.1599  -5.1451  -5.0320
    -5.0210  -5.0191  -5.0105  -4.9888  -4.9809  -4.9787  -4.9685  -4.9630
    -4.3151  -4.1161  -3.8080  -3.7286  -3.5728  -3.5276  -3.1736  -2.9574
    -0.7395  -0.6992  -0.6382  -0.6164  -0.5135  -0.4470  -0.4150  -0.3718
    -0.1301  -0.0888  -0.0204   0.1543   0.3896   0.4774   0.5162   0.5488
     0.5757   0.6037   0.6205   0.6520   0.7130   0.7623   0.8034   0.8467
     0.9022   0.9529   0.9956   1.0371   1.0771   1.0978   1.1127   1.1384
     1.1858   1.2256   1.2596   1.2808   1.3058   1.3490   1.3580   1.3845
     1.3987   1.4279   1.4678   1.4799   1.4937   1.5245   1.5680   1.5841
     1.6089   1.6253   1.6501   1.6767   1.6893   1.7205   1.7322   1.7533
     1.7820   1.8119   1.8592   1.8905   1.9354   1.9643   1.9952   2.0284
     2.1033   2.1193   2.1966   2.3083   2.3944   2.5478   2.7455   2.9145

          k = 0.3750 0.1250-0.1250 (132608 PWs)   bands (ev):

   -18.5601 -18.4794 -18.4620 -18.4108 -18.3999 -18.3392 -18.3316 -18.3276
   -18.3164 -18.3102 -18.2874 -18.2825 -18.2737 -18.2697 -18.2648 -18.2644
   -18.2601 -18.2574 -18.2571 -18.2545 -18.2539 -18.2512 -18.2503 -18.2469
   -18.2443 -18.2439 -18.2436 -18.2422 -18.2390 -18.2364 -18.2351 -18.1898
   -18.1794 -18.1401 -18.1304 -18.1291 -18.1194 -18.1174 -18.1136 -18.1123
   -18.1117 -18.1116 -18.1077 -18.1063 -18.1051 -18.1009 -18.0965 -18.0901
    -9.3900  -9.3294  -9.2451  -9.1863  -9.1480  -9.1101  -9.0714  -9.0301
    -9.0156  -8.9918  -8.9153  -8.8964  -8.8910  -8.8769  -8.8455  -8.8291
    -8.7994  -8.7429  -8.7227  -8.7060  -8.6414  -8.6331  -8.5606  -8.5362
    -5.3298  -5.3178  -5.3108  -5.2549  -5.2502  -5.2332  -5.2299  -5.2196
    -5.2051  -5.1793  -5.1760  -5.1729  -5.1668  -5.1596  -5.1449  -5.0321
    -5.0209  -5.0190  -5.0106  -4.9890  -4.9808  -4.9787  -4.9685  -4.9630
    -4.3151  -4.1162  -3.8112  -3.7225  -3.5816  -3.5215  -3.1724  -2.9588
    -0.7236  -0.7006  -0.6405  -0.6205  -0.5169  -0.4552  -0.4287  -0.3732
    -0.1188  -0.0902   0.0085   0.1472   0.3853   0.4862   0.5090   0.5278
     0.5737   0.5948   0.6201   0.6528   0.7153   0.7704   0.8164   0.8490
     0.9121   0.9272   1.0166   1.0405   1.0648   1.0806   1.1307   1.1523
     1.2052   1.2241   1.2442   1.2632   1.3016   1.3242   1.3609   1.3896
     1.4027   1.4354   1.4702   1.4755   1.4980   1.5384   1.5587   1.5862
     1.6148   1.6305   1.6404   1.6660   1.6799   1.7046   1.7402   1.7639
     1.7855   1.8149   1.8783   1.8971   1.9374   1.9736   1.9904   2.0240
     2.1074   2.1212   2.1808   2.2730   2.4089   2.5546   2.7506   2.9172

          k =-0.3750 0.1250 0.1250 (132608 PWs)   bands (ev):

   -18.5601 -18.4794 -18.4620 -18.4108 -18.3999 -18.3392 -18.3316 -18.3276
   -18.3164 -18.3102 -18.2873 -18.2825 -18.2737 -18.2697 -18.2648 -18.2644
   -18.2601 -18.2574 -18.2571 -18.2545 -18.2539 -18.2512 -18.2503 -18.2469
   -18.2443 -18.2439 -18.2436 -18.2422 -18.2390 -18.2364 -18.2351 -18.1898
   -18.1794 -18.1401 -18.1304 -18.1291 -18.1194 -18.1174 -18.1136 -18.1123
   -18.1117 -18.1116 -18.1077 -18.1063 -18.1051 -18.1009 -18.0965 -18.0901
    -9.3902  -9.3288  -9.2446  -9.1918  -9.1423  -9.1099  -9.0684  -9.0366
    -9.0122  -8.9914  -8.9196  -8.9010  -8.8906  -8.8738  -8.8456  -8.8240
    -8.7981  -8.7438  -8.7236  -8.7070  -8.6412  -8.6327  -8.5619  -8.5353
    -5.3298  -5.3178  -5.3108  -5.2549  -5.2503  -5.2331  -5.2299  -5.2196
    -5.2052  -5.1792  -5.1768  -5.1731  -5.1656  -5.1599  -5.1450  -5.0319
    -5.0209  -5.0190  -5.0106  -4.9889  -4.9808  -4.9787  -4.9685  -4.9630
    -4.3185  -4.1076  -3.8204  -3.7275  -3.5726  -3.5146  -3.1891  -2.9482
    -0.7443  -0.6978  -0.6332  -0.6126  -0.5181  -0.4623  -0.4222  -0.3682
    -0.1293  -0.0827   0.0172   0.1451   0.3916   0.4721   0.5060   0.5282
     0.5692   0.6054   0.6243   0.6501   0.7239   0.7831   0.8094   0.8437
     0.8938   0.9518   0.9950   1.0289   1.0808   1.0962   1.1162   1.1435
     1.1803   1.2322   1.2404   1.2684   1.3196   1.3381   1.3581   1.3748
     1.4039   1.4327   1.4632   1.4815   1.5098   1.5395   1.5691   1.5903
     1.6121   1.6312   1.6445   1.6634   1.6744   1.7124   1.7339   1.7570
     1.7806   1.8169   1.8609   1.9058   1.9213   1.9597   1.9921   2.0335
     2.1088   2.1263   2.1887   2.2859   2.4272   2.5521   2.7255   2.9282

          k =-0.1250 0.3750 0.1250 (132608 PWs)   bands (ev):

   -18.5601 -18.4794 -18.4620 -18.4108 -18.3999 -18.3392 -18.3316 -18.3276
   -18.3164 -18.3102 -18.2874 -18.2825 -18.2737 -18.2697 -18.2648 -18.2644
   -18.2600 -18.2574 -18.2571 -18.2545 -18.2539 -18.2512 -18.2503 -18.2469
   -18.2443 -18.2439 -18.2436 -18.2423 -18.2390 -18.2364 -18.2351 -18.1898
   -18.1794 -18.1401 -18.1304 -18.1291 -18.1193 -18.1174 -18.1136 -18.1123
   -18.1117 -18.1116 -18.1077 -18.1063 -18.1051 -18.1009 -18.0965 -18.0901
    -9.3964  -9.3036  -9.2550  -9.2066  -9.1433  -9.1121  -9.0810  -9.0274
    -8.9944  -8.9788  -8.9446  -8.9071  -8.8904  -8.8697  -8.8311  -8.8270
    -8.7852  -8.7556  -8.7309  -8.6984  -8.6443  -8.6366  -8.5623  -8.5325
    -5.3300  -5.3179  -5.3109  -5.2550  -5.2504  -5.2338  -5.2290  -5.2190
    -5.2052  -5.1791  -5.1762  -5.1731  -5.1661  -5.1598  -5.1452  -5.0321
    -5.0208  -5.0195  -5.0105  -4.9887  -4.9802  -4.9791  -4.9685  -4.9630
    -4.3141  -4.0641  -3.8048  -3.7832  -3.5501  -3.5185  -3.2453  -2.9732
    -0.7231  -0.6447  -0.6037  -0.5655  -0.5269  -0.4552  -0.3813  -0.2472
    -0.1279  -0.0709  -0.0511   0.1089   0.4171   0.4944   0.5187   0.5362
     0.5548   0.5906   0.6328   0.6422   0.6852   0.7130   0.7419   0.7821
     0.8661   0.9121   1.0027   1.0402   1.0700   1.0868   1.1430   1.1946
     1.2311   1.2515   1.2672   1.3034   1.3139   1.3329   1.3543   1.3879
     1.3911   1.4304   1.4529   1.4739   1.4913   1.5235   1.5503   1.5712
     1.5935   1.6218   1.6460   1.6578   1.6844   1.7025   1.7315   1.7508
     1.7973   1.8153   1.8478   1.8973   1.9293   1.9860   1.9940   2.0307
     2.0571   2.0872   2.2444   2.2674   2.4073   2.4539   2.7552   2.8996

          k =-0.1250-0.3750-0.1250 (132608 PWs)   bands (ev):

   -18.5601 -18.4794 -18.4620 -18.4108 -18.3999 -18.3392 -18.3316 -18.3276
   -18.3164 -18.3102 -18.2874 -18.2825 -18.2737 -18.2697 -18.2648 -18.2644
   -18.2600 -18.2574 -18.2571 -18.2545 -18.2539 -18.2512 -18.2503 -18.2469
   -18.2443 -18.2439 -18.2436 -18.2423 -18.2390 -18.2364 -18.2351 -18.1898
   -18.1794 -18.1401 -18.1304 -18.1291 -18.1193 -18.1174 -18.1136 -18.1123
   -18.1117 -18.1116 -18.1077 -18.1063 -18.1051 -18.1009 -18.0965 -18.0901
    -9.3958  -9.3059  -9.2562  -9.1999  -9.1434  -9.1150  -9.0869  -9.0148
    -8.9973  -8.9899  -8.9356  -8.9053  -8.8877  -8.8747  -8.8387  -8.8220
    -8.7874  -8.7534  -8.7315  -8.6950  -8.6469  -8.6370  -8.5609  -8.5330
    -5.3300  -5.3179  -5.3109  -5.2549  -5.2504  -5.2339  -5.2291  -5.2190
    -5.2051  -5.1792  -5.1761  -5.1730  -5.1661  -5.1598  -5.1453  -5.0322
    -5.0210  -5.0195  -5.0104  -4.9886  -4.9803  -4.9790  -4.9685  -4.9630
    -4.3108  -4.0752  -3.7903  -3.7772  -3.5583  -3.5346  -3.2244  -2.9830
    -0.7124  -0.6580  -0.6043  -0.5570  -0.5238  -0.4463  -0.3885  -0.2527
    -0.1352  -0.0726  -0.0521   0.1067   0.4428   0.4688   0.5232   0.5350
     0.5576   0.5945   0.6164   0.6577   0.6727   0.7046   0.7513   0.7815
     0.8550   0.9117   1.0170   1.0436   1.0734   1.1195   1.1476   1.1662
     1.2328   1.2425   1.2762   1.2970   1.3116   1.3354   1.3633   1.3816
     1.4164   1.4318   1.4475   1.4683   1.4937   1.5234   1.5385   1.5651
     1.5935   1.6112   1.6545   1.6644   1.6871   1.6972   1.7239   1.7494
     1.7845   1.8267   1.8572   1.8914   1.9342   1.9839   1.9982   2.0273
     2.0458   2.0960   2.2210   2.2937   2.4137   2.4393   2.7732   2.8783

          k = 0.1250 0.3750-0.1250 (132608 PWs)   bands (ev):

   -18.5601 -18.4794 -18.4620 -18.4108 -18.3999 -18.3392 -18.3316 -18.3276
   -18.3164 -18.3102 -18.2874 -18.2825 -18.2737 -18.2697 -18.2648 -18.2644
   -18.2600 -18.2574 -18.2571 -18.2545 -18.2539 -18.2512 -18.2503 -18.2469
   -18.2443 -18.2439 -18.2436 -18.2423 -18.2390 -18.2364 -18.2351 -18.1898
   -18.1794 -18.1401 -18.1304 -18.1291 -18.1193 -18.1174 -18.1136 -18.1123
   -18.1117 -18.1116 -18.1077 -18.1063 -18.1051 -18.1009 -18.0965 -18.0901
    -9.3963  -9.3033  -9.2572  -9.2017  -9.1453  -9.1156  -9.0837  -9.0133
    -8.9976  -8.9892  -8.9377  -8.9063  -8.8898  -8.8710  -8.8327  -8.8273
    -8.7884  -8.7556  -8.7297  -8.6956  -8.6457  -8.6372  -8.5603  -8.5337
    -5.3300  -5.3178  -5.3109  -5.2550  -5.2504  -5.2339  -5.2291  -5.2190
    -5.2051  -5.1792  -5.1755  -5.1726  -5.1675  -5.1594  -5.1450  -5.0322
    -5.0208  -5.0195  -5.0105  -4.9887  -4.9803  -4.9791  -4.9684  -4.9630
    -4.3115  -4.0726  -3.7933  -3.7807  -3.5573  -3.5290  -3.2262  -2.9834
    -0.7090  -0.6608  -0.5950  -0.5520  -0.5310  -0.4661  -0.3851  -0.2397
    -0.1390  -0.0778  -0.0447   0.1011   0.4457   0.4752   0.5087   0.5362
     0.5649   0.5944   0.6340   0.6503   0.6756   0.7073   0.7299   0.7818
     0.8673   0.9146   1.0093   1.0417   1.0734   1.1207   1.1500   1.1680
     1.2269   1.2447   1.2807   1.2919   1.3243   1.3356   1.3658   1.3826
     1.3960   1.4118   1.4284   1.4802   1.4927   1.5181   1.5463   1.5671
     1.6067   1.6158   1.6490   1.6619   1.6974   1.7162   1.7248   1.7450
     1.7923   1.8180   1.8523   1.8980   1.9303   1.9801   2.0012   2.0195
     2.0661   2.0896   2.2008   2.2990   2.3954   2.4564   2.7711   2.8875

          k = 0.1250-0.3750 0.1250 (132608 PWs)   bands (ev):

   -18.5601 -18.4794 -18.4620 -18.4108 -18.3999 -18.3392 -18.3316 -18.3276
   -18.3164 -18.3102 -18.2874 -18.2825 -18.2737 -18.2697 -18.2648 -18.2644
   -18.2600 -18.2574 -18.2571 -18.2545 -18.2539 -18.2512 -18.2503 -18.2469
   -18.2443 -18.2439 -18.2436 -18.2423 -18.2390 -18.2364 -18.2351 -18.1898
   -18.1794 -18.1401 -18.1304 -18.1291 -18.1193 -18.1174 -18.1136 -18.1123
   -18.1117 -18.1116 -18.1077 -18.1063 -18.1051 -18.1009 -18.0965 -18.0901
    -9.3964  -9.3029  -9.2580  -9.2048  -9.1352  -9.1161  -9.0838  -9.0267
    -9.0030  -8.9780  -8.9415  -8.9043  -8.8841  -8.8735  -8.8329  -8.8255
    -8.7872  -8.7576  -8.7289  -8.6953  -8.6477  -8.6373  -8.5608  -8.5328
    -5.3300  -5.3179  -5.3108  -5.2549  -5.2505  -5.2339  -5.2291  -5.2190
    -5.2051  -5.1792  -5.1758  -5.1726  -5.1675  -5.1595  -5.1449  -5.0321
    -5.0210  -5.0194  -5.0105  -4.9886  -4.9803  -4.9790  -4.9684  -4.9631
    -4.3152  -4.0627  -3.8101  -3.7758  -3.5523  -3.5191  -3.2459  -2.9724
    -0.7136  -0.6559  -0.5916  -0.5660  -0.5252  -0.4604  -0.3871  -0.2393
    -0.1322  -0.0801  -0.0542   0.1029   0.4223   0.4937   0.5085   0.5323
     0.5665   0.5909   0.6384   0.6631   0.6756   0.7115   0.7435   0.7749
     0.8608   0.9143   1.0137   1.0579   1.0707   1.1069   1.1224   1.1835
     1.2305   1.2538   1.2677   1.2867   1.3142   1.3332   1.3603   1.3739
     1.4023   1.4212   1.4595   1.4769   1.4958   1.5343   1.5436   1.5691
     1.5989   1.6220   1.6473   1.6581   1.6856   1.6987   1.7275   1.7559
     1.7891   1.8186   1.8372   1.8891   1.9210   1.9828   1.9990   2.0303
     2.0618   2.1032   2.2320   2.2809   2.4139   2.4336   2.7500   2.9098

          k =-0.1250-0.3750 0.3750 (132616 PWs)   bands (ev):

   -18.5601 -18.4794 -18.4620 -18.4108 -18.3999 -18.3392 -18.3316 -18.3276
   -18.3164 -18.3102 -18.2874 -18.2825 -18.2737 -18.2697 -18.2648 -18.2644
   -18.2600 -18.2574 -18.2571 -18.2545 -18.2539 -18.2512 -18.2503 -18.2469
   -18.2443 -18.2439 -18.2436 -18.2423 -18.2390 -18.2364 -18.2351 -18.1898
   -18.1794 -18.1401 -18.1302 -18.1292 -18.1193 -18.1174 -18.1136 -18.1123
   -18.1117 -18.1116 -18.1077 -18.1063 -18.1051 -18.1009 -18.0965 -18.0901
    -9.3756  -9.3023  -9.2663  -9.2035  -9.1785  -9.1169  -9.0776  -9.0340
    -8.9952  -8.9818  -8.9274  -8.9098  -8.8834  -8.8659  -8.8353  -8.8154
    -8.7788  -8.7542  -8.7186  -8.6932  -8.6557  -8.6459  -8.5633  -8.5357
    -5.3300  -5.3177  -5.3108  -5.2550  -5.2501  -5.2341  -5.2290  -5.2191
    -5.2051  -5.1795  -5.1761  -5.1735  -5.1672  -5.1589  -5.1448  -5.0323
    -5.0206  -5.0188  -5.0107  -4.9891  -4.9808  -4.9788  -4.9676  -4.9637
    -4.1854  -3.9881  -3.9190  -3.7400  -3.6394  -3.4200  -3.4064  -3.1813
    -0.6503  -0.5565  -0.5106  -0.3948  -0.3486  -0.2369  -0.2049  -0.1486
    -0.0872  -0.0064   0.0937   0.1690   0.3255   0.4175   0.4742   0.4920
     0.5284   0.5467   0.5914   0.6025   0.6388   0.6668   0.6739   0.7209
     0.8174   0.8868   0.9230   0.9743   1.0211   1.0408   1.0760   1.1072
     1.1350   1.1781   1.2023   1.2454   1.2767   1.3067   1.3334   1.3616
     1.3879   1.4252   1.4681   1.4856   1.5253   1.5531   1.5716   1.5877
     1.6309   1.6505   1.6642   1.7090   1.7224   1.7357   1.7439   1.7890
     1.8214   1.8453   1.8583   1.8662   1.8963   1.9355   1.9578   1.9624
     1.9900   2.0666   2.0944   2.1974   2.3477   2.3799   2.5091   2.5809

          k =-0.1250 0.3750-0.3750 (132616 PWs)   bands (ev):

   -18.5601 -18.4794 -18.4620 -18.4108 -18.3999 -18.3392 -18.3316 -18.3276
   -18.3164 -18.3102 -18.2874 -18.2825 -18.2737 -18.2697 -18.2648 -18.2644
   -18.2600 -18.2574 -18.2571 -18.2545 -18.2539 -18.2512 -18.2503 -18.2469
   -18.2443 -18.2439 -18.2436 -18.2423 -18.2390 -18.2364 -18.2351 -18.1898
   -18.1794 -18.1401 -18.1302 -18.1292 -18.1193 -18.1174 -18.1136 -18.1123
   -18.1117 -18.1116 -18.1077 -18.1063 -18.1051 -18.1009 -18.0965 -18.0901
    -9.3751  -9.3052  -9.2646  -9.2062  -9.1703  -9.1144  -9.0862  -9.0321
    -9.0053  -8.9726  -8.9336  -8.9039  -8.8862  -8.8611  -8.8350  -8.8142
    -8.7797  -8.7566  -8.7180  -8.6898  -8.6586  -8.6471  -8.5633  -8.5351
    -5.3300  -5.3178  -5.3108  -5.2549  -5.2502  -5.2340  -5.2290  -5.2191
    -5.2051  -5.1795  -5.1762  -5.1736  -5.1672  -5.1589  -5.1447  -5.0322
    -5.0207  -5.0187  -5.0107  -4.9889  -4.9808  -4.9787  -4.9676  -4.9638
    -4.1890  -3.9869  -3.9168  -3.7157  -3.6586  -3.4331  -3.4090  -3.1701
    -0.6429  -0.5710  -0.5157  -0.3895  -0.3380  -0.2279  -0.2006  -0.1550
    -0.0929  -0.0090   0.0761   0.1737   0.3219   0.4193   0.4659   0.4913
     0.5374   0.5525   0.5920   0.6075   0.6430   0.6600   0.6820   0.7308
     0.8016   0.8865   0.9429   0.9771   1.0217   1.0492   1.0737   1.1089
     1.1415   1.1770   1.1964   1.2365   1.2508   1.3086   1.3278   1.3470
     1.3866   1.4265   1.4667   1.4878   1.5363   1.5593   1.5862   1.6108
     1.6271   1.6482   1.6739   1.6857   1.7118   1.7310   1.7427   1.7888
     1.8142   1.8288   1.8525   1.8804   1.8956   1.9315   1.9536   1.9762
     1.9986   2.0634   2.1192   2.2076   2.3164   2.3705   2.5021   2.6045

          k = 0.1250-0.3750-0.3750 (132616 PWs)   bands (ev):

   -18.5601 -18.4794 -18.4620 -18.4108 -18.3999 -18.3392 -18.3316 -18.3276
   -18.3164 -18.3102 -18.2874 -18.2825 -18.2737 -18.2697 -18.2648 -18.2644
   -18.2600 -18.2574 -18.2571 -18.2545 -18.2539 -18.2512 -18.2503 -18.2469
   -18.2443 -18.2439 -18.2436 -18.2423 -18.2390 -18.2364 -18.2351 -18.1898
   -18.1794 -18.1401 -18.1302 -18.1292 -18.1193 -18.1174 -18.1136 -18.1123
   -18.1117 -18.1116 -18.1077 -18.1063 -18.1051 -18.1009 -18.0965 -18.0901
    -9.3750  -9.3063  -9.2609  -9.2087  -9.1721  -9.1210  -9.0744  -9.0387
    -8.9983  -8.9718  -8.9337  -8.9084  -8.8888  -8.8627  -8.8313  -8.8156
    -8.7783  -8.7539  -8.7210  -8.6933  -8.6569  -8.6434  -8.5650  -8.5348
    -5.3299  -5.3178  -5.3108  -5.2550  -5.2502  -5.2340  -5.2290  -5.2191
    -5.2051  -5.1794  -5.1768  -5.1737  -5.1661  -5.1591  -5.1449  -5.0321
    -5.0205  -5.0188  -5.0107  -4.9891  -4.9807  -4.9788  -4.9676  -4.9637
    -4.1855  -4.0003  -3.9042  -3.7292  -3.6447  -3.4546  -3.3877  -3.1728
    -0.6484  -0.5641  -0.5203  -0.3941  -0.3531  -0.2376  -0.1828  -0.1515
    -0.0644  -0.0218   0.0753   0.2191   0.3083   0.4120   0.4641   0.4879
     0.5241   0.5461   0.5717   0.6151   0.6353   0.6543   0.6866   0.7299
     0.8236   0.8824   0.9317   0.9566   1.0218   1.0484   1.0865   1.1075
     1.1389   1.1828   1.2019   1.2370   1.2682   1.3116   1.3330   1.3566
     1.3868   1.4102   1.4468   1.4942   1.5402   1.5537   1.5837   1.6069
     1.6350   1.6518   1.6715   1.6854   1.7222   1.7413   1.7500   1.7589
     1.8073   1.8340   1.8477   1.8621   1.9077   1.9503   1.9636   1.9796
     2.0064   2.0581   2.1067   2.2023   2.2905   2.4294   2.4990   2.5803

          k = 0.3750 0.1250-0.3750 (132616 PWs)   bands (ev):

   -18.5601 -18.4794 -18.4620 -18.4108 -18.3999 -18.3392 -18.3316 -18.3276
   -18.3164 -18.3102 -18.2874 -18.2825 -18.2737 -18.2697 -18.2648 -18.2644
   -18.2601 -18.2574 -18.2571 -18.2545 -18.2539 -18.2512 -18.2503 -18.2469
   -18.2443 -18.2439 -18.2436 -18.2423 -18.2390 -18.2364 -18.2351 -18.1898
   -18.1794 -18.1401 -18.1302 -18.1292 -18.1194 -18.1174 -18.1136 -18.1123
   -18.1117 -18.1116 -18.1077 -18.1063 -18.1051 -18.1009 -18.0965 -18.0901
    -9.3702  -9.3163  -9.2695  -9.1963  -9.1778  -9.1014  -9.0629  -9.0418
    -9.0102  -8.9954  -8.9086  -8.8997  -8.8858  -8.8720  -8.8574  -8.8061
    -8.7897  -8.7370  -8.7221  -8.6946  -8.6582  -8.6409  -8.5640  -8.5363
    -5.3300  -5.3178  -5.3109  -5.2551  -5.2501  -5.2331  -5.2299  -5.2194
    -5.2050  -5.1793  -5.1753  -5.1722  -5.1681  -5.1596  -5.1453  -5.0322
    -5.0210  -5.0186  -5.0110  -4.9895  -4.9809  -4.9783  -4.9673  -4.9637
    -4.1894  -3.9917  -3.9729  -3.7594  -3.6055  -3.3988  -3.3506  -3.1591
    -0.7111  -0.6128  -0.5586  -0.5243  -0.3415  -0.2320  -0.2082  -0.1445
    -0.0763   0.0530   0.1021   0.2085   0.3262   0.4076   0.4458   0.4877
     0.5253   0.5457   0.5893   0.6211   0.6412   0.6714   0.7113   0.7754
     0.8417   0.8822   0.9160   0.9815   1.0038   1.0393   1.0930   1.1155
     1.1409   1.1541   1.1977   1.2274   1.2717   1.2893   1.3200   1.3743
     1.3814   1.4285   1.4641   1.5086   1.5318   1.5577   1.5882   1.6088
     1.6356   1.6628   1.6741   1.6954   1.7170   1.7424   1.7544   1.7980
     1.8168   1.8419   1.8776   1.8914   1.9066   1.9333   1.9617   1.9793
     2.0183   2.0499   2.1030   2.1575   2.3368   2.4511   2.5091   2.6388

          k =-0.3750-0.1250-0.3750 (132616 PWs)   bands (ev):

   -18.5601 -18.4794 -18.4620 -18.4108 -18.3999 -18.3392 -18.3316 -18.3276
   -18.3164 -18.3102 -18.2874 -18.2825 -18.2737 -18.2697 -18.2648 -18.2644
   -18.2601 -18.2574 -18.2571 -18.2545 -18.2539 -18.2512 -18.2503 -18.2469
   -18.2443 -18.2439 -18.2436 -18.2423 -18.2390 -18.2364 -18.2351 -18.1898
   -18.1794 -18.1401 -18.1302 -18.1292 -18.1194 -18.1174 -18.1136 -18.1123
   -18.1117 -18.1116 -18.1077 -18.1063 -18.1051 -18.1009 -18.0965 -18.0901
    -9.3689  -9.3201  -9.2659  -9.2007  -9.1747  -9.0979  -9.0676  -9.0368
    -9.0153  -8.9926  -8.9162  -8.8992  -8.8852  -8.8684  -8.8567  -8.8022
    -8.7914  -8.7371  -8.7244  -8.6888  -8.6627  -8.6418  -8.5630  -8.5364
    -5.3300  -5.3178  -5.3109  -5.2549  -5.2502  -5.2330  -5.2300  -5.2194
    -5.2050  -5.1793  -5.1760  -5.1726  -5.1666  -5.1599  -5.1456  -5.0322
    -5.0212  -5.0187  -5.0109  -4.9893  -4.9809  -4.9782  -4.9674  -4.9638
    -4.1890  -4.0105  -3.9446  -3.7809  -3.5843  -3.4150  -3.3468  -3.1560
    -0.7115  -0.6222  -0.5609  -0.5213  -0.3361  -0.2117  -0.1759  -0.1229
    -0.0898  -0.0290   0.0701   0.2234   0.3518   0.4129   0.4691   0.5148
     0.5198   0.5655   0.5798   0.6171   0.6326   0.6688   0.7089   0.7509
     0.8211   0.8860   0.9294   0.9803   1.0017   1.0361   1.0843   1.1130
     1.1324   1.1574   1.2182   1.2453   1.2710   1.3009   1.3204   1.3480
     1.3684   1.4468   1.4786   1.4955   1.5225   1.5692   1.5822   1.6028
     1.6357   1.6597   1.6748   1.7094   1.7345   1.7377   1.7623   1.7813
     1.8152   1.8424   1.8527   1.8853   1.8960   1.9258   1.9629   1.9941
     2.0258   2.0634   2.0937   2.1803   2.3773   2.4014   2.5033   2.6398

          k = 0.3750-0.1250 0.3750 (132616 PWs)   bands (ev):

   -18.5601 -18.4794 -18.4620 -18.4108 -18.3999 -18.3392 -18.3316 -18.3276
   -18.3164 -18.3102 -18.2874 -18.2825 -18.2737 -18.2697 -18.2648 -18.2644
   -18.2601 -18.2574 -18.2571 -18.2545 -18.2539 -18.2512 -18.2503 -18.2469
   -18.2443 -18.2439 -18.2436 -18.2423 -18.2390 -18.2364 -18.2351 -18.1898
   -18.1794 -18.1401 -18.1302 -18.1292 -18.1194 -18.1174 -18.1136 -18.1123
   -18.1117 -18.1116 -18.1077 -18.1063 -18.1051 -18.1009 -18.0965 -18.0901
    -9.3694  -9.3195  -9.2662  -9.2010  -9.1729  -9.0926  -9.0717  -9.0385
    -9.0222  -8.9915  -8.9084  -8.8997  -8.8868  -8.8717  -8.8504  -8.8045
    -8.7925  -8.7395  -8.7217  -8.6898  -8.6619  -8.6424  -8.5635  -8.5359
    -5.3300  -5.3178  -5.3109  -5.2549  -5.2502  -5.2330  -5.2299  -5.2194
    -5.2050  -5.1793  -5.1755  -5.1722  -5.1682  -5.1596  -5.1452  -5.0321
    -5.0212  -5.0186  -5.0110  -4.9893  -4.9808  -4.9782  -4.9673  -4.9638
    -4.1933  -4.0042  -3.9483  -3.7696  -3.5924  -3.4142  -3.3589  -3.1461
    -0.7078  -0.6250  -0.5668  -0.5146  -0.3392  -0.2170  -0.1780  -0.1235
    -0.0813  -0.0295   0.0744   0.2144   0.3484   0.4207   0.4652   0.5031
     0.5184   0.5650   0.5895   0.6108   0.6328   0.6822   0.7230   0.7586
     0.8083   0.8833   0.9252   0.9773   1.0251   1.0437   1.0820   1.1200
     1.1339   1.1539   1.2104   1.2344   1.2503   1.2843   1.3263   1.3520
     1.3946   1.4267   1.4606   1.5135   1.5358   1.5639   1.5900   1.6154
     1.6316   1.6464   1.6789   1.6996   1.7221   1.7481   1.7610   1.7758
     1.8146   1.8418   1.8649   1.8900   1.9031   1.9303   1.9536   1.9879
     2.0227   2.0714   2.1021   2.1577   2.3535   2.4187   2.5070   2.6565

          k =-0.3750 0.1250 0.3750 (132616 PWs)   bands (ev):

   -18.5601 -18.4794 -18.4620 -18.4108 -18.3999 -18.3392 -18.3316 -18.3276
   -18.3164 -18.3102 -18.2874 -18.2825 -18.2737 -18.2697 -18.2648 -18.2644
   -18.2601 -18.2574 -18.2571 -18.2545 -18.2539 -18.2512 -18.2503 -18.2469
   -18.2443 -18.2439 -18.2436 -18.2423 -18.2390 -18.2364 -18.2351 -18.1898
   -18.1794 -18.1401 -18.1302 -18.1292 -18.1194 -18.1174 -18.1136 -18.1123
   -18.1117 -18.1116 -18.1077 -18.1063 -18.1051 -18.1009 -18.0965 -18.0901
    -9.3698  -9.3178  -9.2683  -9.1958  -9.1776  -9.1034  -9.0632  -9.0332
    -9.0212  -8.9894  -8.9156  -8.9001  -8.8864  -8.8719  -8.8507  -8.8051
    -8.7901  -8.7377  -8.7231  -8.6939  -8.6592  -8.6402  -8.5648  -8.5358
    -5.3299  -5.3178  -5.3109  -5.2550  -5.2501  -5.2330  -5.2299  -5.2194
    -5.2050  -5.1792  -5.1761  -5.1728  -5.1665  -5.1599  -5.1455  -5.0320
    -5.0210  -5.0187  -5.0110  -4.9894  -4.9808  -4.9783  -4.9674  -4.9638
    -4.1914  -3.9836  -3.9797  -3.7494  -3.6131  -3.4000  -3.3603  -3.1493
    -0.7085  -0.6284  -0.5663  -0.5169  -0.3347  -0.2188  -0.2106  -0.1398
    -0.0748   0.0431   0.0988   0.2217   0.3228   0.4061   0.4454   0.4918
     0.5212   0.5353   0.6032   0.6179   0.6427   0.6780   0.7036   0.7795
     0.8117   0.8825   0.9401   0.9833   1.0002   1.0521   1.0881   1.1041
     1.1394   1.1551   1.1966   1.2349   1.2597   1.2809   1.3255   1.3606
     1.3819   1.4550   1.4700   1.5022   1.5459   1.5642   1.5788   1.6189
     1.6297   1.6486   1.6668   1.6982   1.7133   1.7400   1.7589   1.7846
     1.8106   1.8493   1.8754   1.8846   1.8958   1.9306   1.9534   1.9858
     2.0298   2.0584   2.1195   2.1688   2.3429   2.4638   2.4818   2.6398

          k = 0.3750-0.3750 0.1250 (132616 PWs)   bands (ev):

   -18.5601 -18.4794 -18.4620 -18.4108 -18.3999 -18.3392 -18.3316 -18.3276
   -18.3164 -18.3102 -18.2873 -18.2825 -18.2737 -18.2697 -18.2648 -18.2644
   -18.2600 -18.2574 -18.2571 -18.2545 -18.2539 -18.2512 -18.2503 -18.2469
   -18.2443 -18.2439 -18.2436 -18.2423 -18.2390 -18.2364 -18.2351 -18.1898
   -18.1794 -18.1401 -18.1304 -18.1291 -18.1193 -18.1174 -18.1136 -18.1123
   -18.1117 -18.1116 -18.1077 -18.1063 -18.1051 -18.1009 -18.0965 -18.0901
    -9.3738  -9.3180  -9.2534  -9.2091  -9.1550  -9.1281  -9.0690  -9.0565
    -9.0037  -8.9667  -8.9248  -8.9021  -8.8734  -8.8691  -8.8367  -8.8224
    -8.7885  -8.7528  -8.7296  -8.6966  -8.6427  -8.6397  -8.5636  -8.5390
    -5.3298  -5.3179  -5.3107  -5.2548  -5.2503  -5.2332  -5.2298  -5.2194
    -5.2054  -5.1793  -5.1756  -5.1726  -5.1675  -5.1596  -5.1447  -5.0319
    -5.0210  -5.0192  -5.0104  -4.9888  -4.9806  -4.9787  -4.9689  -4.9630
    -4.2005  -3.9902  -3.9202  -3.7063  -3.6643  -3.4433  -3.3896  -3.1398
    -0.6920  -0.5802  -0.5067  -0.4918  -0.3400  -0.2263  -0.2109  -0.1322
    -0.0509  -0.0194   0.0638   0.1907   0.3206   0.4149   0.4916   0.5265
     0.5516   0.5606   0.5764   0.6028   0.6298   0.6658   0.6928   0.7199
     0.8145   0.8863   0.9246   0.9520   0.9821   1.0231   1.0593   1.1200
     1.1487   1.1780   1.2289   1.2582   1.3100   1.3267   1.3443   1.3636
     1.3912   1.4297   1.4565   1.4934   1.5213   1.5381   1.5782   1.6098
     1.6297   1.6403   1.6685   1.6917   1.7365   1.7422   1.7677   1.7863
     1.8093   1.8390   1.8549   1.8691   1.9175   1.9445   1.9547   1.9798
     2.0161   2.0664   2.1032   2.1900   2.2460   2.3911   2.5122   2.6572

          k =-0.3750-0.3750-0.1250 (132616 PWs)   bands (ev):

   -18.5601 -18.4794 -18.4620 -18.4108 -18.3999 -18.3392 -18.3316 -18.3276
   -18.3164 -18.3102 -18.2873 -18.2825 -18.2737 -18.2697 -18.2648 -18.2644
   -18.2600 -18.2574 -18.2571 -18.2545 -18.2539 -18.2512 -18.2503 -18.2469
   -18.2443 -18.2439 -18.2436 -18.2423 -18.2390 -18.2364 -18.2351 -18.1898
   -18.1794 -18.1401 -18.1304 -18.1291 -18.1193 -18.1174 -18.1136 -18.1123
   -18.1117 -18.1116 -18.1077 -18.1063 -18.1051 -18.1009 -18.0965 -18.0901
    -9.3726  -9.3210  -9.2529  -9.2009  -9.1644  -9.1302  -9.0783  -9.0375
    -9.0000  -8.9748  -8.9264  -8.8963  -8.8768  -8.8713  -8.8412  -8.8187
    -8.7894  -8.7490  -8.7324  -8.6953  -8.6431  -8.6396  -8.5625  -8.5399
    -5.3298  -5.3179  -5.3107  -5.2549  -5.2503  -5.2332  -5.2299  -5.2194
    -5.2054  -5.1793  -5.1760  -5.1729  -5.1661  -5.1598  -5.1451  -5.0320
    -5.0210  -5.0193  -5.0103  -4.9887  -4.9807  -4.9787  -4.9689  -4.9629
    -4.1864  -4.0445  -3.8633  -3.7213  -3.6498  -3.5190  -3.3022  -3.1681
    -0.6982  -0.5781  -0.5167  -0.4584  -0.3734  -0.2319  -0.1810  -0.1159
    -0.0808  -0.0029   0.0563   0.2000   0.2944   0.4531   0.4779   0.5126
     0.5456   0.5610   0.5884   0.6014   0.6229   0.6597   0.6816   0.7237
     0.8185   0.8763   0.9218   0.9743   0.9957   1.0433   1.0521   1.0842
     1.1305   1.1886   1.2345   1.2524   1.3178   1.3313   1.3445   1.3706
     1.3973   1.4297   1.4626   1.4945   1.5219   1.5538   1.5714   1.5964
     1.6342   1.6545   1.6673   1.6876   1.7153   1.7321   1.7675   1.7861
     1.7952   1.8253   1.8598   1.8785   1.9285   1.9491   1.9669   1.9918
     2.0147   2.0573   2.1075   2.1877   2.2308   2.3885   2.5676   2.6088

          k = 0.3750 0.3750-0.1250 (132616 PWs)   bands (ev):

   -18.5601 -18.4794 -18.4620 -18.4108 -18.3999 -18.3392 -18.3316 -18.3276
   -18.3164 -18.3102 -18.2873 -18.2825 -18.2737 -18.2697 -18.2648 -18.2644
   -18.2600 -18.2574 -18.2571 -18.2545 -18.2539 -18.2512 -18.2503 -18.2469
   -18.2443 -18.2439 -18.2436 -18.2423 -18.2390 -18.2364 -18.2351 -18.1898
   -18.1794 -18.1401 -18.1304 -18.1291 -18.1193 -18.1174 -18.1136 -18.1123
   -18.1117 -18.1116 -18.1077 -18.1063 -18.1051 -18.1009 -18.0965 -18.0901
    -9.3736  -9.3188  -9.2524  -9.2029  -9.1666  -9.1290  -9.0754  -9.0391
    -9.0014  -8.9725  -8.9254  -8.8974  -8.8815  -8.8657  -8.8361  -8.8255
    -8.7894  -8.7503  -8.7310  -8.6968  -8.6424  -8.6379  -8.5629  -8.5402
    -5.3298  -5.3178  -5.3108  -5.2550  -5.2502  -5.2333  -5.2298  -5.2194
    -5.2054  -5.1793  -5.1754  -5.1726  -5.1675  -5.1595  -5.1448  -5.0320
    -5.0209  -5.0193  -5.0104  -4.9889  -4.9806  -4.9787  -4.9689  -4.9629
    -4.1869  -4.0434  -3.8617  -3.7354  -3.6359  -3.5198  -3.3017  -3.1698
    -0.6900  -0.5829  -0.5157  -0.4676  -0.3679  -0.2397  -0.1888  -0.1207
    -0.0690  -0.0041   0.0770   0.1936   0.3009   0.4487   0.4792   0.5091
     0.5278   0.5596   0.5801   0.6125   0.6288   0.6626   0.6722   0.7349
     0.8259   0.8783   0.9314   0.9603   0.9857   1.0292   1.0449   1.1090
     1.1619   1.1799   1.2251   1.2823   1.2913   1.3171   1.3413   1.3582
     1.3986   1.4425   1.4747   1.4815   1.5109   1.5209   1.5708   1.6142
     1.6320   1.6636   1.6734   1.6940   1.7189   1.7463   1.7621   1.7772
     1.8144   1.8208   1.8651   1.8867   1.9285   1.9497   1.9711   1.9965
     2.0194   2.0395   2.0845   2.1808   2.2283   2.4011   2.5555   2.6239

          k =-0.3750 0.3750 0.1250 (132616 PWs)   bands (ev):

   -18.5601 -18.4794 -18.4620 -18.4108 -18.3999 -18.3392 -18.3316 -18.3276
   -18.3164 -18.3102 -18.2873 -18.2825 -18.2737 -18.2697 -18.2648 -18.2644
   -18.2600 -18.2574 -18.2571 -18.2545 -18.2539 -18.2512 -18.2503 -18.2469
   -18.2443 -18.2439 -18.2436 -18.2423 -18.2390 -18.2364 -18.2351 -18.1898
   -18.1794 -18.1401 -18.1304 -18.1291 -18.1193 -18.1174 -18.1136 -18.1123
   -18.1117 -18.1116 -18.1077 -18.1063 -18.1051 -18.1009 -18.0965 -18.0901
    -9.3741  -9.3174  -9.2518  -9.2102  -9.1603  -9.1283  -9.0640  -9.0564
    -8.9962  -8.9684  -8.9328  -8.8995  -8.8808  -8.8654  -8.8363  -8.8209
    -8.7872  -8.7510  -8.7316  -8.6987  -8.6429  -8.6366  -8.5644  -8.5391
    -5.3298  -5.3178  -5.3108  -5.2549  -5.2502  -5.2332  -5.2298  -5.2194
    -5.2054  -5.1793  -5.1761  -5.1730  -5.1661  -5.1599  -5.1450  -5.0319
    -5.0208  -5.0193  -5.0104  -4.9889  -4.9806  -4.9787  -4.9689  -4.9629
    -4.1990  -3.9904  -3.9202  -3.7271  -3.6435  -3.4450  -3.3876  -3.1412
    -0.6996  -0.5733  -0.5113  -0.4935  -0.3433  -0.2256  -0.2117  -0.1292
    -0.0477  -0.0112   0.0828   0.1881   0.3251   0.4091   0.4889   0.5219
     0.5366   0.5625   0.5752   0.6035   0.6263   0.6492   0.7032   0.7349
     0.8120   0.8884   0.9179   0.9469   0.9806   1.0289   1.0511   1.1278
     1.1450   1.1685   1.2263   1.2441   1.3133   1.3262   1.3411   1.3812
     1.3934   1.4536   1.4691   1.4822   1.5194   1.5362   1.5749   1.5963
     1.6301   1.6515   1.6773   1.6948   1.7227   1.7511   1.7690   1.7861
     1.8035   1.8206   1.8583   1.8855   1.9013   1.9382   1.9533   1.9828
     2.0304   2.0706   2.1049   2.1808   2.2533   2.3994   2.5153   2.6456

          k =-0.3750-0.3750 0.3750 (132612 PWs)   bands (ev):

   -18.5601 -18.4794 -18.4620 -18.4108 -18.3999 -18.3392 -18.3316 -18.3276
   -18.3164 -18.3102 -18.2873 -18.2825 -18.2737 -18.2697 -18.2648 -18.2644
   -18.2600 -18.2574 -18.2571 -18.2545 -18.2539 -18.2512 -18.2503 -18.2469
   -18.2443 -18.2439 -18.2436 -18.2423 -18.2390 -18.2364 -18.2351 -18.1898
   -18.1794 -18.1401 -18.1302 -18.1292 -18.1193 -18.1174 -18.1136 -18.1123
   -18.1117 -18.1116 -18.1077 -18.1063 -18.1051 -18.1009 -18.0965 -18.0901
    -9.3552  -9.3057  -9.2608  -9.2196  -9.1856  -9.1332  -9.0839  -9.0522
    -8.9913  -8.9737  -8.9110  -8.8940  -8.8852  -8.8648  -8.8351  -8.8103
    -8.7795  -8.7500  -8.7238  -8.6911  -8.6563  -8.6465  -8.5649  -8.5406
    -5.3300  -5.3178  -5.3109  -5.2551  -5.2501  -5.2332  -5.2298  -5.2193
    -5.2053  -5.1794  -5.1760  -5.1733  -5.1671  -5.1590  -5.1446  -5.0321
    -5.0210  -5.0188  -5.0106  -4.9893  -4.9807  -4.9783  -4.9676  -4.9636
    -4.0625  -3.9254  -3.8434  -3.7504  -3.6869  -3.5742  -3.4689  -3.3589
    -0.4145  -0.3576  -0.2794  -0.2729  -0.2282  -0.2168  -0.1361  -0.0929
    -0.0540   0.0269   0.1420   0.2221   0.2888   0.3562   0.3934   0.4151
     0.4511   0.5222   0.5425   0.5775   0.5870   0.6174   0.6384   0.6648
     0.8791   0.9058   0.9209   0.9515   0.9877   1.0004   1.0314   1.0532
     1.0918   1.1125   1.1538   1.1878   1.2072   1.2301   1.2748   1.3131
     1.3472   1.4279   1.4789   1.5011   1.5339   1.5850   1.6171   1.6344
     1.6680   1.6895   1.7177   1.7334   1.7487   1.7580   1.7852   1.8045
     1.8136   1.8517   1.8637   1.8741   1.9039   1.9176   1.9365   1.9553
     1.9862   1.9991   2.0314   2.0589   2.1509   2.1869   2.3028   2.3231

          k =-0.3750 0.3750-0.3750 (132612 PWs)   bands (ev):

   -18.5601 -18.4794 -18.4620 -18.4108 -18.3999 -18.3392 -18.3316 -18.3276
   -18.3164 -18.3102 -18.2873 -18.2825 -18.2737 -18.2697 -18.2648 -18.2644
   -18.2600 -18.2574 -18.2571 -18.2545 -18.2539 -18.2512 -18.2503 -18.2469
   -18.2443 -18.2439 -18.2436 -18.2423 -18.2390 -18.2364 -18.2351 -18.1898
   -18.1794 -18.1401 -18.1302 -18.1292 -18.1193 -18.1174 -18.1136 -18.1123
   -18.1117 -18.1116 -18.1077 -18.1063 -18.1051 -18.1009 -18.0965 -18.0901
    -9.3541  -9.3095  -9.2573  -9.2254  -9.1756  -9.1275  -9.0995  -9.0471
    -8.9996  -8.9664  -8.9105  -8.8999  -8.8820  -8.8619  -8.8331  -8.8090
    -8.7808  -8.7529  -8.7227  -8.6872  -8.6589  -8.6485  -8.5650  -8.5399
    -5.3300  -5.3178  -5.3109  -5.2550  -5.2502  -5.2331  -5.2298  -5.2192
    -5.2053  -5.1794  -5.1762  -5.1734  -5.1671  -5.1590  -5.1445  -5.0319
    -5.0212  -5.0187  -5.0106  -4.9892  -4.9807  -4.9782  -4.9676  -4.9637
    -4.0762  -3.8831  -3.8568  -3.7855  -3.6183  -3.5821  -3.5432  -3.3252
    -0.4028  -0.3754  -0.3155  -0.2723  -0.2144  -0.1495  -0.1188  -0.1029
    -0.0504  -0.0123   0.0720   0.2459   0.3094   0.3466   0.3727   0.4423
     0.4826   0.5132   0.5596   0.5877   0.5942   0.6110   0.6307   0.6482
     0.8653   0.9037   0.9367   0.9496   0.9678   1.0186   1.0525   1.0705
     1.0876   1.1196   1.1439   1.1673   1.1894   1.2317   1.2759   1.3015
     1.3350   1.4412   1.4788   1.5197   1.5371   1.5945   1.6146   1.6224
     1.6590   1.6833   1.7126   1.7348   1.7558   1.7611   1.7850   1.8010
     1.8173   1.8412   1.8503   1.8871   1.8977   1.9149   1.9386   1.9589
     1.9766   2.0124   2.0541   2.0749   2.1225   2.1864   2.2770   2.3510

          k = 0.3750-0.3750-0.3750 (132612 PWs)   bands (ev):

   -18.5601 -18.4794 -18.4620 -18.4108 -18.3999 -18.3392 -18.3316 -18.3276
   -18.3164 -18.3102 -18.2873 -18.2825 -18.2737 -18.2697 -18.2648 -18.2644
   -18.2600 -18.2574 -18.2571 -18.2545 -18.2539 -18.2512 -18.2503 -18.2469
   -18.2443 -18.2439 -18.2436 -18.2423 -18.2390 -18.2364 -18.2351 -18.1898
   -18.1794 -18.1401 -18.1302 -18.1292 -18.1193 -18.1174 -18.1136 -18.1123
   -18.1117 -18.1116 -18.1077 -18.1063 -18.1051 -18.1009 -18.0965 -18.0901
    -9.3546  -9.3081  -9.2566  -9.2252  -9.1790  -9.1369  -9.0835  -9.0523
    -8.9946  -8.9657  -8.9200  -8.8952  -8.8846  -8.8631  -8.8310  -8.8092
    -8.7798  -8.7501  -8.7253  -8.6902  -8.6586  -8.6448  -8.5658  -8.5400
    -5.3300  -5.3178  -5.3109  -5.2550  -5.2501  -5.2331  -5.2298  -5.2192
    -5.2053  -5.1793  -5.1768  -5.1735  -5.1660  -5.1592  -5.1448  -5.0319
    -5.0210  -5.0188  -5.0106  -4.9893  -4.9806  -4.9783  -4.9676  -4.9636
    -4.0710  -3.8918  -3.8636  -3.7754  -3.6240  -3.5913  -3.5231  -3.3300
    -0.4243  -0.3737  -0.3107  -0.2538  -0.2333  -0.1738  -0.1272  -0.0905
    -0.0277   0.0054   0.1198   0.2516   0.2921   0.3513   0.3804   0.3989
     0.4948   0.5050   0.5228   0.5667   0.5919   0.6167   0.6409   0.6750
     0.8446   0.9061   0.9395   0.9756   0.9855   0.9961   1.0318   1.0684
     1.0864   1.1132   1.1273   1.1679   1.2130   1.2425   1.2796   1.3163
     1.3347   1.4525   1.4633   1.4816   1.5711   1.5961   1.6117   1.6391
     1.6631   1.6820   1.7187   1.7259   1.7398   1.7782   1.7838   1.7924
     1.8090   1.8262   1.8447   1.8747   1.8922   1.9218   1.9477   1.9619
     1.9854   2.0105   2.0507   2.0936   2.1396   2.1970   2.2837   2.3170

     highest occupied level (ev):     3.1824

!    total energy              =   -2256.30116757 Ry
     estimated scf accuracy    <          3.5E-11 Ry

     The total energy is the sum of the following terms:
     one-electron contribution =    -986.93574347 Ry
     hartree contribution      =     621.56547429 Ry
     xc contribution           =    -647.48817472 Ry
     ewald contribution        =   -1243.44272368 Ry

     convergence has been achieved in  15 iterations

     Forces acting on atoms (cartesian axes, Ry/au):

     atom    1 type  1   force =     0.00051878    0.00026922   -0.00363603
     atom    2 type  2   force =     0.00883598   -0.00276796   -0.00703459
     atom    3 type  3   force =    -0.00865531   -0.00207569    0.00203472
     atom    4 type  3   force =     0.01584272    0.01790690    0.00850798
     atom    5 type  3   force =    -0.00105793   -0.00253559   -0.00276688
     atom    6 type  1   force =     0.00097572    0.00212309    0.00176149
     atom    7 type  2   force =     0.00418468   -0.00015138   -0.00788515
     atom    8 type  3   force =    -0.01090705    0.00972673    0.00572194
     atom    9 type  3   force =     0.00087334   -0.00131489   -0.00483354
     atom   10 type  3   force =    -0.00202049    0.00120199    0.00098052
     atom   11 type  1   force =     0.00186646    0.00331513    0.00231134
     atom   12 type  2   force =    -0.00463605    0.00733033   -0.01209538
     atom   13 type  3   force =    -0.01887600   -0.00143302   -0.00548060
     atom   14 type  3   force =    -0.00069924    0.00291406   -0.00049583
     atom   15 type  3   force =     0.00659119   -0.00237217   -0.00354182
     atom   16 type  1   force =     0.00044181   -0.00000874   -0.00084200
     atom   17 type  2   force =     0.01031105    0.01171595    0.00856743
     atom   18 type  3   force =     0.01011215   -0.00048824   -0.00243661
     atom   19 type  3   force =    -0.00314010   -0.00281670    0.00656774
     atom   20 type  3   force =    -0.00621640   -0.00105547    0.00243621
     atom   21 type  1   force =    -0.00242296   -0.00148458   -0.00263508
     atom   22 type  2   force =    -0.01616736    0.00648466    0.00148384
     atom   23 type  3   force =     0.01742161    0.00114749   -0.00063313
     atom   24 type  3   force =     0.00149437    0.00330058   -0.00193630
     atom   25 type  3   force =     0.00087058   -0.00279853   -0.00079702
     atom   26 type  1   force =    -0.00239888    0.00244413    0.00433170
     atom   27 type  2   force =    -0.01395187    0.02079790    0.00347638
     atom   28 type  3   force =     0.01872985   -0.00140414   -0.00224452
     atom   29 type  3   force =    -0.00167029    0.00677401   -0.00398422
     atom   30 type  3   force =     0.00348829    0.00294910   -0.00460938
     atom   31 type  1   force =    -0.01930063   -0.01695023    0.00145881
     atom   32 type  2   force =     0.01579946   -0.01397920    0.00970914
     atom   33 type  3   force =     0.01087684   -0.01534612    0.01381465
     atom   34 type  3   force =     0.00436105   -0.00618166    0.00726815
     atom   35 type  3   force =    -0.00473927   -0.00325774    0.00040981
     atom   36 type  1   force =    -0.00081781    0.00942601   -0.00541607
     atom   37 type  2   force =    -0.00541449   -0.00087631   -0.00010447
     atom   38 type  3   force =    -0.00776690   -0.01230250   -0.00207974
     atom   39 type  3   force =    -0.00640530    0.00333557   -0.00835897
     atom   40 type  3   force =     0.00366842   -0.02156199    0.00300545

     Total force =     0.084508     Total SCF correction =     0.000025


     Computing stress (Cartesian axis) and pressure

          total   stress  (Ry/bohr**3)                   (kbar)     P=       -7.53
  -0.00005803   0.00000971   0.00000167           -8.54        1.43        0.25
   0.00000971  -0.00003845   0.00000185            1.43       -5.66        0.27
   0.00000167   0.00000185  -0.00005707            0.25        0.27       -8.40

 
     init_run     :     19.77s CPU     17.22s WALL (       1 calls)
     electrons    :    199.51s CPU    215.44s WALL (       1 calls)
     forces       :      8.74s CPU      3.91s WALL (       1 calls)
     stress       :     30.49s CPU     30.42s WALL (       1 calls)

     Called by init_run:
     wfcinit      :     11.87s CPU     14.18s WALL (       1 calls)
                                       14.18s GPU  (       1 calls)
     potinit      :      4.49s CPU      1.38s WALL (       1 calls)
     hinit0       :      2.84s CPU      0.99s WALL (       1 calls)

     Called by electrons:
     c_bands      :    119.68s CPU    173.54s WALL (      16 calls)
     sum_band     :     21.05s CPU     20.76s WALL (      16 calls)
                                       20.76s GPU  (      16 calls)
     v_of_rho     :     54.47s CPU     16.49s WALL (      16 calls)
     mix_rho      :      6.37s CPU      4.86s WALL (      16 calls)

     Called by c_bands:
     init_us_2    :      2.17s CPU      2.97s WALL (     280 calls)
                                        2.97s GPU  (     280 calls)
     cegterg      :     78.40s CPU    129.57s WALL (     128 calls)

     Called by *egterg:
     cdiaghg      :     13.81s CPU     25.62s WALL (     683 calls)
                                       25.59s GPU  (     683 calls)
     h_psi        :     52.60s CPU     75.61s WALL (     699 calls)
                                       75.16s GPU  (     699 calls)
     g_psi        :      0.00s CPU      0.37s WALL (     563 calls)
                                        0.36s GPU  (     563 calls)

     Called by h_psi:
     h_psi:calbec :      0.35s CPU     10.11s WALL (     699 calls)
                                       10.10s GPU  (     699 calls)
     vloc_psi     :     38.27s CPU     55.41s WALL (     699 calls)
                                       54.47s GPU  (     699 calls)
     add_vuspsi   :      0.34s CPU      9.99s WALL (     699 calls)
                                        9.98s GPU  (     699 calls)

     General routines
     calbec       :      0.35s CPU      0.39s WALL (     739 calls)
     fft          :     25.56s CPU      6.54s WALL (     185 calls)
                                        0.00s GPU  (       6 calls)
     ffts         :      2.64s CPU      0.68s WALL (      16 calls)
     fftw         :      0.68s CPU     63.96s WALL (   10740 calls)
                                       47.91s GPU  (   10740 calls)
 
     Parallel routines
 
     PWSCF        :   4m19.17s CPU   4m27.73s WALL

 
   This run was terminated on:  22:13:11  22Apr2021            

=------------------------------------------------------------------------------=
   JOB DONE.
=------------------------------------------------------------------------------=
