
     Program PWSCF v.6.7MaX starts on 22Apr2021 at 20:31:41 

     This program is part of the open-source Quantum ESPRESSO suite
     for quantum simulation of materials; please cite
         "P. Giannozzi et al., J. Phys.:Condens. Matter 21 395502 (2009);
         "P. Giannozzi et al., J. Phys.:Condens. Matter 29 465901 (2017);
         "P. Giannozzi et al., J. Chem. Phys. 152 154105 (2020);
          URL http://www.quantum-espresso.org", 
     in publications or presentations arising from this work. More details at
     http://www.quantum-espresso.org/quote

     Parallel version (MPI & OpenMP), running on      16 processor cores
     Number of MPI processes:                 4
     Threads/MPI process:                     4

     MPI processes distributed on     1 nodes
     K-points division:     npool     =       4
     Reading input from ESP_59.pwi
Warning: card &CELL ignored
Warning: card / ignored

     Current dimensions of program PWSCF are:
     Max number of different atomic species (ntypx) = 10
     Max number of k-points (npk) =  40000
     Max angular momentum in pseudopotentials (lmaxx) =  3
     Message from routine read_pp_mesh:
     mesh size missing, using the one in header
     Message from routine read_pp_mesh:
     mesh size missing, using the one in header
     Message from routine read_pp_mesh:
     mesh size missing, using the one in header

     Subspace diagonalization in iterative solution of the eigenvalue problem:
     a serial algorithm will be used

 
     G-vector sticks info
     --------------------
     sticks:   dense  smooth     PW     G-vecs:    dense   smooth      PW
     Sum       12589   12589   3289              1061107  1061107  140905
 
     Using Slab Decomposition
 


     bravais-lattice index     =            0
     lattice parameter (alat)  =      23.7585  a.u.
     unit-cell volume          =   13410.8736 (a.u.)^3
     number of atoms/cell      =           40
     number of atomic types    =            3
     number of electrons       =       352.00
     number of Kohn-Sham states=          176
     kinetic-energy cutoff     =      70.0000  Ry
     charge density cutoff     =     280.0000  Ry
     scf convergence threshold =      1.0E-10
     mixing beta               =       0.7000
     number of iterations used =            8  plain     mixing
     Exchange-correlation= PBESOL
                           (   1   4  10   8   0   0   0)

     GPU acceleration is ACTIVE.


     celldm(1)=  23.758500  celldm(2)=   0.000000  celldm(3)=   0.000000
     celldm(4)=   0.000000  celldm(5)=   0.000000  celldm(6)=   0.000000

     crystal axes: (cart. coord. in units of alat)
               a(1) = (   1.000000   0.000000   0.000000 )  
               a(2) = (   0.000000   1.000000   0.000000 )  
               a(3) = (   0.000000   0.000000   1.000000 )  

     reciprocal axes: (cart. coord. in units 2 pi/alat)
               b(1) = (  1.000000  0.000000  0.000000 )  
               b(2) = (  0.000000  1.000000  0.000000 )  
               b(3) = (  0.000000  0.000000  1.000000 )  


     PseudoPot. # 1 for Cs read from file:
     /m100/home/userexternal/lmonacel/espresso/pseudo/Cs-nc-pbesol.upf
     MD5 check sum: 9d2f2206a14dc5b3b3f3fbfae186bed4
     Pseudo is Norm-conserving + core correction, Zval =  9.0
     Generated using ONCVPSP code by D. R. Hamann
     Using radial grid of 2384 points,  8 beta functions with: 
                l(1) =   0
                l(2) =   0
                l(3) =   1
                l(4) =   1
                l(5) =   2
                l(6) =   2
                l(7) =   3
                l(8) =   3

     PseudoPot. # 2 for Sn read from file:
     /m100/home/userexternal/lmonacel/espresso/pseudo/Sn-nc-pbesol.upf
     MD5 check sum: c2995d571af40102bfea7461443d92cf
     Pseudo is Norm-conserving + core correction, Zval = 14.0
     Generated using ONCVPSP code by D. R. Hamann
     Using radial grid of 1628 points,  6 beta functions with: 
                l(1) =   0
                l(2) =   0
                l(3) =   1
                l(4) =   1
                l(5) =   2
                l(6) =   2

     PseudoPot. # 3 for I  read from file:
     /m100/home/userexternal/lmonacel/espresso/pseudo/I-nc-pbesol.upf
     MD5 check sum: 80ed5ceb2eb9c553cfb6760a299d9c5b
     Pseudo is Norm-conserving + core correction, Zval =  7.0
     Generated using ONCVPSP code by D. R. Hamann
     Using radial grid of 1182 points,  6 beta functions with: 
                l(1) =   0
                l(2) =   0
                l(3) =   1
                l(4) =   1
                l(5) =   2
                l(6) =   2

     atomic species   valence    mass     pseudopotential
        Cs             9.00   132.90545     Cs( 1.00)
        Sn            14.00   118.71000     Sn( 1.00)
        I              7.00   126.90447     I ( 1.00)

     No symmetry found



   Cartesian axes

     site n.     atom                  positions (alat units)
         1           Cs  tau(   1) = (   0.2304548   0.2379698   0.2664282  )
         2           Sn  tau(   2) = (  -0.0220070  -0.0067638  -0.0193471  )
         3           I   tau(   3) = (   0.2281842  -0.0044462   0.0137769  )
         4           I   tau(   4) = (   0.0043453   0.0219468   0.2151906  )
         5           I   tau(   5) = (  -0.0337645   0.2492471   0.0001137  )
         6           Cs  tau(   6) = (   0.2835207   0.2469930   0.7591286  )
         7           Sn  tau(   7) = (   0.0177855  -0.0007631   0.4769618  )
         8           I   tau(   8) = (   0.2566738   0.0243587   0.4801768  )
         9           I   tau(   9) = (   0.0082116  -0.0102136   0.7246450  )
        10           I   tau(  10) = (  -0.0215231   0.2379828   0.4749119  )
        11           Cs  tau(  11) = (   0.2418998   0.7615602   0.2402851  )
        12           Sn  tau(  12) = (  -0.0110372   0.5151035  -0.0133293  )
        13           I   tau(  13) = (   0.2441735   0.4887726   0.0128256  )
        14           I   tau(  14) = (  -0.0187816   0.4867473   0.2429292  )
        15           I   tau(  15) = (  -0.0315291   0.7489175  -0.0004366  )
        16           Cs  tau(  16) = (   0.2340971   0.7178738   0.7554857  )
        17           Sn  tau(  17) = (   0.0158241   0.4910283   0.4898357  )
        18           I   tau(  18) = (   0.2676069   0.4659366   0.4563709  )
        19           I   tau(  19) = (   0.0177410   0.5072567   0.7490877  )
        20           I   tau(  20) = (   0.0142610   0.7441882   0.4638534  )
        21           Cs  tau(  21) = (   0.7621329   0.2617085   0.2411609  )
        22           Sn  tau(  22) = (   0.4805041  -0.0031616   0.0175440  )
        23           I   tau(  23) = (   0.7084889  -0.0109414   0.0089798  )
        24           I   tau(  24) = (   0.4942114  -0.0099628   0.2550445  )
        25           I   tau(  25) = (   0.4826239   0.2474783   0.0008591  )
        26           Cs  tau(  26) = (   0.7744861   0.2428060   0.7594767  )
        27           Sn  tau(  27) = (   0.5157066  -0.0044980   0.5221626  )
        28           I   tau(  28) = (   0.7614388  -0.0018955   0.4988329  )
        29           I   tau(  29) = (   0.4893384   0.0107821   0.7454890  )
        30           I   tau(  30) = (   0.5118187   0.2693925   0.5070321  )
        31           Cs  tau(  31) = (   0.7688647   0.7972746   0.2948544  )
        32           Sn  tau(  32) = (   0.4931589   0.4934181   0.0125124  )
        33           I   tau(  33) = (   0.7521656   0.4817892   0.0261878  )
        34           I   tau(  34) = (   0.5386685   0.5265147   0.2620676  )
        35           I   tau(  35) = (   0.4825927   0.7342818  -0.0026370  )
        36           Cs  tau(  36) = (   0.7589345   0.7510331   0.7617934  )
        37           Sn  tau(  37) = (   0.5094681   0.5094039   0.5070198  )
        38           I   tau(  38) = (   0.7783879   0.5260185   0.5252555  )
        39           I   tau(  39) = (   0.5092518   0.4931848   0.7480019  )
        40           I   tau(  40) = (   0.4990105   0.7604601   0.5153226  )

     number of k points=    32
                       cart. coord. in units 2pi/alat
        k(    1) = (   0.1250000   0.1250000   0.1250000), wk =   0.0625000
        k(    2) = (   0.1250000   0.1250000   0.3750000), wk =   0.0625000
        k(    3) = (   0.1250000   0.3750000   0.3750000), wk =   0.0625000
        k(    4) = (   0.3750000   0.3750000   0.3750000), wk =   0.0625000
        k(    5) = (  -0.1250000  -0.1250000   0.1250000), wk =   0.0625000
        k(    6) = (  -0.1250000   0.1250000  -0.1250000), wk =   0.0625000
        k(    7) = (   0.1250000  -0.1250000  -0.1250000), wk =   0.0625000
        k(    8) = (  -0.1250000  -0.1250000   0.3750000), wk =   0.0625000
        k(    9) = (  -0.1250000   0.1250000  -0.3750000), wk =   0.0625000
        k(   10) = (   0.1250000  -0.1250000  -0.3750000), wk =   0.0625000
        k(   11) = (   0.3750000  -0.1250000   0.1250000), wk =   0.0625000
        k(   12) = (  -0.3750000  -0.1250000  -0.1250000), wk =   0.0625000
        k(   13) = (   0.3750000   0.1250000  -0.1250000), wk =   0.0625000
        k(   14) = (  -0.3750000   0.1250000   0.1250000), wk =   0.0625000
        k(   15) = (  -0.1250000   0.3750000   0.1250000), wk =   0.0625000
        k(   16) = (  -0.1250000  -0.3750000  -0.1250000), wk =   0.0625000
        k(   17) = (   0.1250000   0.3750000  -0.1250000), wk =   0.0625000
        k(   18) = (   0.1250000  -0.3750000   0.1250000), wk =   0.0625000
        k(   19) = (  -0.1250000  -0.3750000   0.3750000), wk =   0.0625000
        k(   20) = (  -0.1250000   0.3750000  -0.3750000), wk =   0.0625000
        k(   21) = (   0.1250000  -0.3750000  -0.3750000), wk =   0.0625000
        k(   22) = (   0.3750000   0.1250000  -0.3750000), wk =   0.0625000
        k(   23) = (  -0.3750000  -0.1250000  -0.3750000), wk =   0.0625000
        k(   24) = (   0.3750000  -0.1250000   0.3750000), wk =   0.0625000
        k(   25) = (  -0.3750000   0.1250000   0.3750000), wk =   0.0625000
        k(   26) = (   0.3750000  -0.3750000   0.1250000), wk =   0.0625000
        k(   27) = (  -0.3750000  -0.3750000  -0.1250000), wk =   0.0625000
        k(   28) = (   0.3750000   0.3750000  -0.1250000), wk =   0.0625000
        k(   29) = (  -0.3750000   0.3750000   0.1250000), wk =   0.0625000
        k(   30) = (  -0.3750000  -0.3750000   0.3750000), wk =   0.0625000
        k(   31) = (  -0.3750000   0.3750000  -0.3750000), wk =   0.0625000
        k(   32) = (   0.3750000  -0.3750000  -0.3750000), wk =   0.0625000

     Dense  grid:  1061107 G-vectors     FFT dimensions: ( 128, 128, 128)

     Estimated max dynamical RAM per process >       6.82 GB

     Estimated total dynamical RAM >      27.27 GB

     Initial potential from superposition of free atoms

     starting charge  351.69472, renormalised to  352.00000
     Starting wfcs are  208 randomized atomic wfcs

     total cpu time spent up to now is       17.9 secs

     Self-consistent Calculation

     iteration #  1     ecut=    70.00 Ry     beta= 0.70
     Davidson diagonalization with overlap
     ethr =  1.00E-02,  avg # of iterations =  2.0

     Threshold (ethr) on eigenvalues was too large:
     Diagonalizing with lowered threshold

     Davidson diagonalization with overlap
     ethr =  2.16E-04,  avg # of iterations =  4.0

     total cpu time spent up to now is       38.9 secs

     total energy              =   -2256.01653468 Ry
     estimated scf accuracy    <       0.66114233 Ry

     iteration #  2     ecut=    70.00 Ry     beta= 0.70
     Davidson diagonalization with overlap
     ethr =  1.88E-04,  avg # of iterations =  3.3

     total cpu time spent up to now is       51.9 secs

     total energy              =   -2256.20344283 Ry
     estimated scf accuracy    <       0.35336786 Ry

     iteration #  3     ecut=    70.00 Ry     beta= 0.70
     Davidson diagonalization with overlap
     ethr =  1.00E-04,  avg # of iterations =  3.0

     total cpu time spent up to now is       63.8 secs

     total energy              =   -2256.27423597 Ry
     estimated scf accuracy    <       0.05029035 Ry

     iteration #  4     ecut=    70.00 Ry     beta= 0.70
     Davidson diagonalization with overlap
     ethr =  1.43E-05,  avg # of iterations =  3.3

     total cpu time spent up to now is       76.3 secs

     total energy              =   -2256.28771391 Ry
     estimated scf accuracy    <       0.00266181 Ry

     iteration #  5     ecut=    70.00 Ry     beta= 0.70
     Davidson diagonalization with overlap
     ethr =  7.56E-07,  avg # of iterations =  5.1

     total cpu time spent up to now is       90.5 secs

     total energy              =   -2256.28832377 Ry
     estimated scf accuracy    <       0.00133649 Ry

     iteration #  6     ecut=    70.00 Ry     beta= 0.70
     Davidson diagonalization with overlap
     ethr =  3.80E-07,  avg # of iterations =  3.1

     total cpu time spent up to now is      102.6 secs

     total energy              =   -2256.28850536 Ry
     estimated scf accuracy    <       0.00021520 Ry

     iteration #  7     ecut=    70.00 Ry     beta= 0.70
     Davidson diagonalization with overlap
     ethr =  6.11E-08,  avg # of iterations =  4.8

     total cpu time spent up to now is      116.3 secs

     total energy              =   -2256.28856845 Ry
     estimated scf accuracy    <       0.00003357 Ry

     iteration #  8     ecut=    70.00 Ry     beta= 0.70
     Davidson diagonalization with overlap
     ethr =  9.54E-09,  avg # of iterations =  4.0

     total cpu time spent up to now is      129.5 secs

     total energy              =   -2256.28857712 Ry
     estimated scf accuracy    <       0.00000941 Ry

     iteration #  9     ecut=    70.00 Ry     beta= 0.70
     Davidson diagonalization with overlap
     ethr =  2.67E-09,  avg # of iterations =  3.2

     total cpu time spent up to now is      142.0 secs

     total energy              =   -2256.28857933 Ry
     estimated scf accuracy    <       0.00000080 Ry

     iteration # 10     ecut=    70.00 Ry     beta= 0.70
     Davidson diagonalization with overlap
     ethr =  2.26E-10,  avg # of iterations =  5.0

     total cpu time spent up to now is      157.9 secs

     total energy              =   -2256.28857982 Ry
     estimated scf accuracy    <       0.00000052 Ry

     iteration # 11     ecut=    70.00 Ry     beta= 0.70
     Davidson diagonalization with overlap
     ethr =  1.49E-10,  avg # of iterations =  2.6

     total cpu time spent up to now is      169.9 secs

     total energy              =   -2256.28857987 Ry
     estimated scf accuracy    <       0.00000009 Ry

     iteration # 12     ecut=    70.00 Ry     beta= 0.70
     Davidson diagonalization with overlap
     ethr =  2.55E-11,  avg # of iterations =  4.7

     total cpu time spent up to now is      184.2 secs

     total energy              =   -2256.28857992 Ry
     estimated scf accuracy    <       0.00000002 Ry

     iteration # 13     ecut=    70.00 Ry     beta= 0.70
     Davidson diagonalization with overlap
     ethr =  6.71E-12,  avg # of iterations =  4.2

     total cpu time spent up to now is      198.0 secs

     total energy              =   -2256.28857993 Ry
     estimated scf accuracy    <          6.2E-09 Ry

     iteration # 14     ecut=    70.00 Ry     beta= 0.70
     Davidson diagonalization with overlap
     ethr =  1.77E-12,  avg # of iterations =  4.9

     total cpu time spent up to now is      212.2 secs

     total energy              =   -2256.28857993 Ry
     estimated scf accuracy    <          1.1E-09 Ry

     iteration # 15     ecut=    70.00 Ry     beta= 0.70
     Davidson diagonalization with overlap
     ethr =  3.11E-13,  avg # of iterations =  5.6

     total cpu time spent up to now is      229.4 secs

     total energy              =   -2256.28857993 Ry
     estimated scf accuracy    <          1.3E-10 Ry

     iteration # 16     ecut=    70.00 Ry     beta= 0.70
     Davidson diagonalization with overlap
     ethr =  1.00E-13,  avg # of iterations =  2.5

     total cpu time spent up to now is      241.1 secs

     End of self-consistent calculation

          k = 0.1250 0.1250 0.1250 (132670 PWs)   bands (ev):

   -18.6246 -18.5558 -18.4696 -18.4388 -18.4200 -18.3742 -18.3729 -18.3670
   -18.3603 -18.3557 -18.3042 -18.2936 -18.2904 -18.2852 -18.2775 -18.2599
   -18.2572 -18.2484 -18.2406 -18.2378 -18.2347 -18.2333 -18.2281 -18.2241
   -18.2240 -18.2188 -18.2104 -18.1978 -18.1895 -18.1836 -18.1678 -18.1650
   -18.1633 -18.1587 -18.1566 -18.1557 -18.1493 -18.1472 -18.1426 -18.1380
   -18.1361 -18.1343 -18.1310 -18.1008 -18.0873 -18.0839 -18.0742 -18.0568
    -9.5356  -9.3890  -9.2750  -9.2142  -9.1849  -9.1042  -9.0718  -9.0196
    -8.9894  -8.9816  -8.9513  -8.9068  -8.8881  -8.8677  -8.8284  -8.7896
    -8.7724  -8.7040  -8.6945  -8.6523  -8.5963  -8.5531  -8.5247  -8.4804
    -5.3938  -5.3872  -5.3670  -5.3316  -5.3129  -5.3012  -5.2424  -5.2284
    -5.2185  -5.2099  -5.2017  -5.1939  -5.1873  -5.1780  -5.1710  -5.0289
    -5.0162  -4.9984  -4.9673  -4.9562  -4.9401  -4.9285  -4.9226  -4.9104
    -4.4616  -3.9897  -3.9072  -3.8748  -3.4086  -3.3399  -3.3189  -2.7365
    -0.7643  -0.7147  -0.6896  -0.6518  -0.6127  -0.5890  -0.4998  -0.4698
    -0.4093  -0.3677  -0.2817  -0.1771   0.4276   0.4531   0.4927   0.6373
     0.6501   0.6714   0.7070   0.7402   0.7878   0.8701   0.9350   0.9595
     0.9895   1.0372   1.0597   1.0910   1.1184   1.1390   1.1677   1.1827
     1.2136   1.2279   1.2557   1.2834   1.3050   1.3125   1.3414   1.3817
     1.4099   1.4312   1.4442   1.4563   1.4898   1.5058   1.5329   1.5522
     1.5816   1.6230   1.6556   1.6899   1.7031   1.7280   1.7699   1.7908
     1.8193   1.8576   1.8824   2.0070   2.0483   2.0761   2.1197   2.1745
     2.2009   2.2365   2.2808   2.3137   2.6568   2.7177   2.8044   3.1796

          k = 0.1250 0.1250 0.3750 (132608 PWs)   bands (ev):

   -18.6246 -18.5558 -18.4696 -18.4388 -18.4200 -18.3742 -18.3729 -18.3670
   -18.3603 -18.3557 -18.3043 -18.2936 -18.2904 -18.2852 -18.2775 -18.2598
   -18.2572 -18.2484 -18.2406 -18.2377 -18.2347 -18.2333 -18.2281 -18.2241
   -18.2240 -18.2188 -18.2104 -18.1978 -18.1895 -18.1836 -18.1678 -18.1650
   -18.1633 -18.1587 -18.1566 -18.1557 -18.1493 -18.1472 -18.1426 -18.1380
   -18.1361 -18.1343 -18.1310 -18.1008 -18.0873 -18.0839 -18.0742 -18.0568
    -9.5301  -9.3787  -9.2951  -9.2070  -9.1824  -9.1365  -9.0598  -9.0260
    -8.9882  -8.9787  -8.9561  -8.9028  -8.8840  -8.8582  -8.8211  -8.7907
    -8.7662  -8.7122  -8.6992  -8.6387  -8.5906  -8.5572  -8.5231  -8.4923
    -5.3937  -5.3872  -5.3669  -5.3315  -5.3128  -5.3010  -5.2424  -5.2283
    -5.2184  -5.2097  -5.2014  -5.1928  -5.1885  -5.1783  -5.1711  -5.0287
    -5.0162  -4.9984  -4.9673  -4.9562  -4.9401  -4.9283  -4.9228  -4.9104
    -4.3344  -4.1175  -3.8154  -3.7572  -3.5794  -3.5183  -3.2050  -2.9616
    -0.7414  -0.6831  -0.6189  -0.5730  -0.5410  -0.4878  -0.4632  -0.3125
    -0.2033  -0.1002  -0.0576   0.1291   0.3767   0.4668   0.5005   0.5113
     0.5695   0.5907   0.6188   0.6559   0.6797   0.7018   0.7686   0.8352
     0.8781   0.9245   0.9752   1.0379   1.0650   1.1229   1.1456   1.1543
     1.1692   1.2134   1.2425   1.2638   1.2956   1.3133   1.3517   1.3799
     1.4116   1.4339   1.4535   1.4802   1.5212   1.5353   1.5505   1.5883
     1.6189   1.6438   1.6541   1.6993   1.7212   1.7386   1.7553   1.7787
     1.8417   1.8854   1.9200   1.9395   1.9785   2.0009   2.0660   2.1292
     2.1430   2.2002   2.2423   2.3022   2.4320   2.5019   2.7861   2.9180

          k = 0.1250 0.3750 0.3750 (132616 PWs)   bands (ev):

   -18.6246 -18.5558 -18.4696 -18.4388 -18.4200 -18.3742 -18.3729 -18.3670
   -18.3603 -18.3557 -18.3042 -18.2936 -18.2904 -18.2852 -18.2775 -18.2598
   -18.2572 -18.2484 -18.2406 -18.2377 -18.2347 -18.2333 -18.2281 -18.2241
   -18.2240 -18.2188 -18.2104 -18.1978 -18.1895 -18.1836 -18.1678 -18.1649
   -18.1633 -18.1587 -18.1565 -18.1558 -18.1493 -18.1472 -18.1426 -18.1380
   -18.1361 -18.1343 -18.1310 -18.1008 -18.0873 -18.0839 -18.0742 -18.0568
    -9.5250  -9.3724  -9.2935  -9.2254  -9.1796  -9.1339  -9.0765  -9.0412
    -8.9955  -8.9839  -8.9297  -8.9023  -8.8780  -8.8573  -8.8263  -8.7673
    -8.7601  -8.7114  -8.6967  -8.6427  -8.5958  -8.5617  -8.5238  -8.4945
    -5.3937  -5.3870  -5.3669  -5.3315  -5.3125  -5.3010  -5.2426  -5.2286
    -5.2185  -5.2098  -5.2018  -5.1918  -5.1900  -5.1776  -5.1709  -5.0286
    -5.0159  -4.9983  -4.9674  -4.9559  -4.9404  -4.9285  -4.9222  -4.9108
    -4.2144  -4.0252  -3.9221  -3.7440  -3.6313  -3.4411  -3.3894  -3.1701
    -0.6627  -0.6224  -0.5277  -0.4204  -0.3793  -0.3201  -0.2552  -0.1447
    -0.0657  -0.0128   0.0800   0.1739   0.3313   0.4239   0.4325   0.4762
     0.5395   0.5649   0.5749   0.6080   0.6516   0.6653   0.7038   0.7323
     0.8102   0.8881   0.9130   0.9247   0.9697   1.0038   1.0324   1.0998
     1.1326   1.1727   1.1918   1.2182   1.2556   1.2925   1.3327   1.3740
     1.4087   1.4290   1.4421   1.4990   1.5170   1.5463   1.5740   1.6193
     1.6441   1.6516   1.6938   1.7195   1.7521   1.7645   1.7877   1.8130
     1.8494   1.8714   1.8945   1.9512   1.9715   1.9985   2.0111   2.0350
     2.0841   2.1112   2.1309   2.2763   2.3173   2.4355   2.4921   2.6351

          k = 0.3750 0.3750 0.3750 (132612 PWs)   bands (ev):

   -18.6246 -18.5558 -18.4696 -18.4388 -18.4200 -18.3742 -18.3729 -18.3670
   -18.3603 -18.3557 -18.3042 -18.2936 -18.2904 -18.2852 -18.2775 -18.2598
   -18.2572 -18.2484 -18.2406 -18.2377 -18.2347 -18.2333 -18.2281 -18.2241
   -18.2240 -18.2188 -18.2104 -18.1978 -18.1895 -18.1836 -18.1678 -18.1649
   -18.1633 -18.1587 -18.1565 -18.1558 -18.1493 -18.1472 -18.1426 -18.1380
   -18.1361 -18.1343 -18.1310 -18.1008 -18.0873 -18.0839 -18.0742 -18.0568
    -9.5230  -9.3576  -9.2940  -9.2224  -9.2055  -9.1458  -9.0741  -9.0443
    -9.0041  -8.9734  -8.9130  -8.9052  -8.8772  -8.8675  -8.8302  -8.7627
    -8.7513  -8.7182  -8.6723  -8.6391  -8.5988  -8.5655  -8.5350  -8.4945
    -5.3937  -5.3870  -5.3668  -5.3317  -5.3125  -5.3011  -5.2424  -5.2280
    -5.2187  -5.2097  -5.2020  -5.1918  -5.1901  -5.1776  -5.1707  -5.0286
    -5.0157  -4.9985  -4.9672  -4.9559  -4.9400  -4.9288  -4.9223  -4.9107
    -4.1071  -3.9370  -3.8469  -3.7898  -3.6021  -3.5740  -3.5410  -3.3458
    -0.4699  -0.3808  -0.3514  -0.3275  -0.2533  -0.2037  -0.1556  -0.1184
     0.0146   0.0298   0.0912   0.2001   0.3396   0.3503   0.3840   0.4293
     0.4733   0.5056   0.5225   0.5553   0.5937   0.6244   0.7008   0.7141
     0.8541   0.8859   0.9062   0.9404   0.9507   0.9874   1.0188   1.0427
     1.0729   1.1012   1.1538   1.1654   1.1905   1.2298   1.2363   1.3229
     1.3474   1.3982   1.4588   1.4795   1.5002   1.5225   1.5937   1.6193
     1.6697   1.6822   1.7255   1.7444   1.7594   1.7835   1.8092   1.8286
     1.8661   1.8890   1.9050   1.9182   1.9491   1.9800   2.0023   2.0119
     2.0611   2.0888   2.1043   2.1466   2.1832   2.2359   2.3089   2.3602

          k =-0.1250-0.1250 0.1250 (132670 PWs)   bands (ev):

   -18.6246 -18.5558 -18.4696 -18.4388 -18.4200 -18.3742 -18.3729 -18.3670
   -18.3603 -18.3557 -18.3042 -18.2936 -18.2904 -18.2852 -18.2775 -18.2599
   -18.2572 -18.2484 -18.2406 -18.2378 -18.2347 -18.2333 -18.2281 -18.2241
   -18.2240 -18.2188 -18.2104 -18.1978 -18.1895 -18.1836 -18.1678 -18.1650
   -18.1633 -18.1587 -18.1566 -18.1557 -18.1493 -18.1472 -18.1426 -18.1380
   -18.1361 -18.1343 -18.1310 -18.1008 -18.0873 -18.0839 -18.0742 -18.0568
    -9.5360  -9.3880  -9.2634  -9.2378  -9.1772  -9.0941  -9.0796  -9.0106
    -8.9963  -8.9848  -8.9480  -8.9121  -8.8831  -8.8658  -8.8268  -8.7943
    -8.7732  -8.7037  -8.6927  -8.6534  -8.5963  -8.5532  -8.5237  -8.4809
    -5.3938  -5.3872  -5.3670  -5.3317  -5.3129  -5.3011  -5.2423  -5.2284
    -5.2184  -5.2099  -5.2020  -5.1938  -5.1873  -5.1776  -5.1712  -5.0288
    -5.0162  -4.9984  -4.9674  -4.9562  -4.9401  -4.9285  -4.9226  -4.9105
    -4.4616  -3.9890  -3.9046  -3.8776  -3.4102  -3.3431  -3.3157  -2.7351
    -0.7808  -0.7282  -0.6788  -0.6417  -0.6065  -0.5776  -0.4946  -0.4570
    -0.4403  -0.3746  -0.2677  -0.1749   0.4275   0.4538   0.4907   0.6183
     0.6572   0.6782   0.7116   0.7459   0.7613   0.8798   0.9231   0.9602
     0.9830   1.0339   1.0682   1.0973   1.1197   1.1481   1.1669   1.1875
     1.2045   1.2434   1.2679   1.2864   1.3099   1.3202   1.3459   1.3793
     1.3852   1.4076   1.4483   1.4664   1.4891   1.5195   1.5340   1.5564
     1.5931   1.6103   1.6453   1.6764   1.7113   1.7183   1.7463   1.7959
     1.8206   1.8674   1.8861   1.9949   2.0551   2.0657   2.1289   2.1783
     2.2100   2.2361   2.2695   2.3352   2.6729   2.7134   2.7786   3.1944

          k =-0.1250 0.1250-0.1250 (132670 PWs)   bands (ev):

   -18.6246 -18.5558 -18.4696 -18.4388 -18.4200 -18.3742 -18.3729 -18.3670
   -18.3603 -18.3557 -18.3042 -18.2936 -18.2904 -18.2852 -18.2775 -18.2599
   -18.2572 -18.2484 -18.2406 -18.2378 -18.2347 -18.2333 -18.2281 -18.2241
   -18.2240 -18.2188 -18.2104 -18.1978 -18.1895 -18.1836 -18.1678 -18.1650
   -18.1633 -18.1587 -18.1566 -18.1557 -18.1493 -18.1472 -18.1426 -18.1380
   -18.1361 -18.1343 -18.1310 -18.1008 -18.0873 -18.0839 -18.0742 -18.0568
    -9.5359  -9.3887  -9.2606  -9.2394  -9.1774  -9.0945  -9.0781  -9.0125
    -8.9962  -8.9841  -8.9519  -8.9119  -8.8807  -8.8637  -8.8252  -8.7965
    -8.7719  -8.7046  -8.6947  -8.6521  -8.5961  -8.5529  -8.5247  -8.4803
    -5.3938  -5.3873  -5.3669  -5.3316  -5.3130  -5.3011  -5.2423  -5.2285
    -5.2185  -5.2099  -5.2019  -5.1939  -5.1873  -5.1776  -5.1712  -5.0288
    -5.0161  -4.9983  -4.9672  -4.9563  -4.9403  -4.9285  -4.9226  -4.9104
    -4.4620  -3.9905  -3.9016  -3.8779  -3.4124  -3.3415  -3.3152  -2.7363
    -0.7862  -0.7161  -0.6692  -0.6474  -0.6074  -0.5652  -0.5047  -0.4752
    -0.4290  -0.3662  -0.2842  -0.1804   0.4290   0.4560   0.4912   0.6170
     0.6598   0.6856   0.7098   0.7474   0.7698   0.8823   0.9269   0.9666
     0.9904   1.0224   1.0552   1.0907   1.0974   1.1335   1.1783   1.1934
     1.2127   1.2370   1.2686   1.2840   1.3119   1.3266   1.3478   1.3722
     1.3988   1.4310   1.4457   1.4638   1.4904   1.5188   1.5335   1.5553
     1.5768   1.6037   1.6460   1.6720   1.7075   1.7216   1.7633   1.7891
     1.8305   1.8587   1.8902   2.0206   2.0416   2.0821   2.1251   2.1467
     2.2109   2.2418   2.2774   2.3205   2.6597   2.6929   2.8279   3.1714

          k = 0.1250-0.1250-0.1250 (132670 PWs)   bands (ev):

   -18.6246 -18.5558 -18.4696 -18.4388 -18.4200 -18.3742 -18.3729 -18.3670
   -18.3603 -18.3557 -18.3042 -18.2936 -18.2904 -18.2852 -18.2775 -18.2599
   -18.2572 -18.2484 -18.2406 -18.2378 -18.2347 -18.2333 -18.2281 -18.2241
   -18.2240 -18.2188 -18.2104 -18.1978 -18.1895 -18.1836 -18.1678 -18.1650
   -18.1633 -18.1587 -18.1566 -18.1557 -18.1493 -18.1472 -18.1426 -18.1380
   -18.1361 -18.1343 -18.1310 -18.1008 -18.0873 -18.0839 -18.0742 -18.0568
    -9.5356  -9.3887  -9.2762  -9.2154  -9.1832  -9.1010  -9.0722  -9.0185
    -8.9984  -8.9778  -8.9530  -8.9069  -8.8835  -8.8637  -8.8309  -8.7920
    -8.7745  -8.7011  -8.6935  -8.6538  -8.5967  -8.5535  -8.5238  -8.4806
    -5.3938  -5.3872  -5.3669  -5.3316  -5.3130  -5.3011  -5.2423  -5.2285
    -5.2186  -5.2099  -5.2016  -5.1938  -5.1873  -5.1780  -5.1711  -5.0288
    -5.0162  -4.9983  -4.9673  -4.9564  -4.9402  -4.9284  -4.9226  -4.9104
    -4.4611  -3.9900  -3.9067  -3.8761  -3.4101  -3.3436  -3.3130  -2.7363
    -0.7889  -0.7290  -0.6950  -0.6213  -0.6087  -0.5520  -0.5154  -0.4643
    -0.4327  -0.3669  -0.2746  -0.1679   0.4260   0.4519   0.4953   0.6230
     0.6490   0.6727   0.6991   0.7380   0.7740   0.8763   0.9316   0.9729
     0.9909   1.0218   1.0676   1.0941   1.1209   1.1455   1.1511   1.1988
     1.2046   1.2413   1.2735   1.2915   1.3101   1.3310   1.3349   1.3638
     1.3709   1.4118   1.4397   1.4712   1.4959   1.5121   1.5412   1.5546
     1.5946   1.6162   1.6563   1.6834   1.7044   1.7297   1.7499   1.7828
     1.8299   1.8688   1.8925   2.0015   2.0404   2.0689   2.1418   2.1718
     2.1941   2.2396   2.2780   2.3118   2.6581   2.7484   2.7859   3.1727

          k =-0.1250-0.1250 0.3750 (132608 PWs)   bands (ev):

   -18.6246 -18.5558 -18.4696 -18.4388 -18.4200 -18.3742 -18.3729 -18.3670
   -18.3603 -18.3557 -18.3043 -18.2936 -18.2904 -18.2852 -18.2775 -18.2598
   -18.2572 -18.2484 -18.2406 -18.2377 -18.2347 -18.2333 -18.2281 -18.2241
   -18.2240 -18.2188 -18.2104 -18.1978 -18.1895 -18.1836 -18.1678 -18.1650
   -18.1633 -18.1587 -18.1566 -18.1557 -18.1493 -18.1472 -18.1426 -18.1380
   -18.1361 -18.1343 -18.1310 -18.1008 -18.0873 -18.0839 -18.0742 -18.0568
    -9.5305  -9.3772  -9.2922  -9.2137  -9.1908  -9.1215  -9.0642  -9.0220
    -8.9907  -8.9831  -8.9531  -8.9056  -8.8790  -8.8570  -8.8186  -8.7968
    -8.7672  -8.7119  -8.6975  -8.6397  -8.5904  -8.5574  -8.5216  -8.4932
    -5.3937  -5.3872  -5.3669  -5.3316  -5.3127  -5.3010  -5.2424  -5.2283
    -5.2183  -5.2098  -5.2017  -5.1928  -5.1884  -5.1780  -5.1714  -5.0287
    -5.0162  -4.9985  -4.9674  -4.9562  -4.9401  -4.9283  -4.9227  -4.9105
    -4.3348  -4.1156  -3.8221  -3.7484  -3.5896  -3.5113  -3.2080  -2.9587
    -0.7463  -0.6914  -0.6204  -0.5686  -0.5471  -0.4769  -0.4512  -0.3163
    -0.1990  -0.1087  -0.0479   0.1343   0.3770   0.4362   0.4983   0.5114
     0.5643   0.6059   0.6220   0.6575   0.6676   0.7081   0.7760   0.8175
     0.8779   0.9340   0.9697   1.0478   1.0626   1.1188   1.1443   1.1578
     1.1913   1.2116   1.2438   1.2827   1.3088   1.3254   1.3447   1.3609
     1.3875   1.4203   1.4464   1.4848   1.5252   1.5396   1.5579   1.6076
     1.6260   1.6383   1.6697   1.6879   1.6988   1.7128   1.7515   1.7698
     1.8380   1.9051   1.9284   1.9388   1.9745   1.9999   2.0853   2.0998
     2.1424   2.1997   2.2553   2.3280   2.4532   2.4711   2.7651   2.9372

          k =-0.1250 0.1250-0.3750 (132608 PWs)   bands (ev):

   -18.6246 -18.5558 -18.4696 -18.4388 -18.4200 -18.3742 -18.3729 -18.3670
   -18.3603 -18.3557 -18.3043 -18.2936 -18.2904 -18.2852 -18.2775 -18.2598
   -18.2572 -18.2484 -18.2406 -18.2377 -18.2347 -18.2333 -18.2281 -18.2241
   -18.2240 -18.2188 -18.2104 -18.1978 -18.1895 -18.1836 -18.1678 -18.1650
   -18.1633 -18.1587 -18.1566 -18.1557 -18.1493 -18.1472 -18.1426 -18.1380
   -18.1361 -18.1343 -18.1310 -18.1008 -18.0873 -18.0839 -18.0742 -18.0568
    -9.5305  -9.3782  -9.2904  -9.2169  -9.1865  -9.1237  -9.0615  -9.0249
    -8.9900  -8.9848  -8.9550  -8.8990  -8.8848  -8.8524  -8.8223  -8.7934
    -8.7667  -8.7131  -8.6997  -8.6383  -8.5907  -8.5570  -8.5228  -8.4923
    -5.3937  -5.3872  -5.3668  -5.3315  -5.3128  -5.3010  -5.2423  -5.2284
    -5.2184  -5.2098  -5.2016  -5.1928  -5.1885  -5.1779  -5.1713  -5.0287
    -5.0161  -4.9984  -4.9673  -4.9562  -4.9403  -4.9283  -4.9227  -4.9104
    -4.3358  -4.1154  -3.8203  -3.7476  -3.5918  -3.5105  -3.2078  -2.9597
    -0.7623  -0.6655  -0.6034  -0.5904  -0.5457  -0.4699  -0.4550  -0.3077
    -0.2054  -0.1184  -0.0623   0.1188   0.3868   0.4690   0.5014   0.5144
     0.5475   0.6039   0.6221   0.6541   0.6812   0.7100   0.7642   0.8430
     0.8831   0.9145   0.9746   1.0341   1.0655   1.0961   1.1326   1.1603
     1.1902   1.2092   1.2664   1.2743   1.3023   1.3241   1.3532   1.3609
     1.3924   1.4392   1.4528   1.4943   1.5055   1.5197   1.5655   1.6015
     1.6341   1.6444   1.6685   1.6818   1.6945   1.7175   1.7641   1.7806
     1.8467   1.8878   1.9284   1.9488   1.9820   1.9979   2.0721   2.1209
     2.1332   2.1751   2.2558   2.3073   2.4404   2.4995   2.7683   2.9365

          k = 0.1250-0.1250-0.3750 (132608 PWs)   bands (ev):

   -18.6246 -18.5558 -18.4696 -18.4388 -18.4200 -18.3742 -18.3729 -18.3670
   -18.3603 -18.3557 -18.3043 -18.2936 -18.2904 -18.2852 -18.2775 -18.2598
   -18.2572 -18.2484 -18.2406 -18.2377 -18.2347 -18.2333 -18.2281 -18.2241
   -18.2240 -18.2188 -18.2104 -18.1978 -18.1895 -18.1836 -18.1678 -18.1650
   -18.1633 -18.1587 -18.1566 -18.1557 -18.1493 -18.1472 -18.1426 -18.1380
   -18.1361 -18.1343 -18.1310 -18.1008 -18.0873 -18.0839 -18.0742 -18.0568
    -9.5301  -9.3782  -9.2967  -9.2090  -9.1791  -9.1351  -9.0593  -9.0252
    -8.9949  -8.9784  -8.9564  -8.8978  -8.8849  -8.8521  -8.8269  -8.7905
    -8.7689  -8.7104  -8.6979  -8.6398  -8.5908  -8.5577  -8.5217  -8.4928
    -5.3937  -5.3872  -5.3669  -5.3315  -5.3128  -5.3009  -5.2423  -5.2284
    -5.2185  -5.2097  -5.2013  -5.1927  -5.1884  -5.1783  -5.1712  -5.0287
    -5.0162  -4.9984  -4.9673  -4.9563  -4.9402  -4.9283  -4.9227  -4.9105
    -4.3334  -4.1184  -3.8174  -3.7558  -3.5802  -3.5172  -3.2053  -2.9606
    -0.7671  -0.6736  -0.6046  -0.5911  -0.5433  -0.4732  -0.4526  -0.3103
    -0.2044  -0.0963  -0.0476   0.1417   0.3691   0.4258   0.4927   0.5227
     0.5664   0.6024   0.6105   0.6562   0.6618   0.7097   0.7772   0.8145
     0.8791   0.9334   0.9717   1.0414   1.0795   1.1271   1.1454   1.1733
     1.1993   1.2152   1.2329   1.2660   1.2946   1.3208   1.3358   1.3661
     1.3756   1.4187   1.4648   1.4892   1.5159   1.5366   1.5519   1.6017
     1.6251   1.6507   1.6555   1.6934   1.7173   1.7368   1.7578   1.7829
     1.8388   1.8985   1.9204   1.9381   1.9739   1.9960   2.0806   2.1113
     2.1467   2.1941   2.2373   2.2902   2.4670   2.4964   2.7720   2.9284

          k = 0.3750-0.1250 0.1250 (132608 PWs)   bands (ev):

   -18.6246 -18.5558 -18.4696 -18.4388 -18.4200 -18.3742 -18.3729 -18.3670
   -18.3603 -18.3557 -18.3042 -18.2936 -18.2904 -18.2852 -18.2775 -18.2599
   -18.2572 -18.2484 -18.2406 -18.2378 -18.2347 -18.2333 -18.2281 -18.2241
   -18.2240 -18.2188 -18.2104 -18.1978 -18.1895 -18.1836 -18.1678 -18.1650
   -18.1633 -18.1587 -18.1566 -18.1557 -18.1493 -18.1472 -18.1426 -18.1380
   -18.1361 -18.1343 -18.1310 -18.1008 -18.0873 -18.0839 -18.0742 -18.0568
    -9.5322  -9.3763  -9.2838  -9.2311  -9.1796  -9.1130  -9.0803  -9.0109
    -8.9999  -8.9659  -8.9507  -8.9087  -8.8922  -8.8729  -8.8212  -8.7937
    -8.7597  -8.7124  -8.6679  -8.6460  -8.5986  -8.5580  -8.5393  -8.4804
    -5.3937  -5.3871  -5.3668  -5.3316  -5.3128  -5.3011  -5.2423  -5.2281
    -5.2188  -5.2098  -5.2022  -5.1940  -5.1875  -5.1777  -5.1710  -5.0287
    -5.0159  -4.9983  -4.9672  -4.9561  -4.9402  -4.9289  -4.9228  -4.9104
    -4.3466  -4.1060  -3.8266  -3.7572  -3.5782  -3.5122  -3.1936  -2.9482
    -0.7760  -0.6810  -0.6548  -0.6141  -0.5530  -0.4886  -0.4696  -0.3216
    -0.1507  -0.1190   0.0248   0.0911   0.4147   0.4440   0.4556   0.5170
     0.5682   0.5963   0.6385   0.6776   0.7034   0.7321   0.7710   0.8203
     0.8567   0.9051   0.9916   1.0140   1.0941   1.1162   1.1331   1.1532
     1.2092   1.2221   1.2560   1.2707   1.3001   1.3398   1.3574   1.3910
     1.3976   1.4271   1.4460   1.4602   1.4886   1.5208   1.5464   1.5642
     1.6056   1.6332   1.6609   1.6895   1.7067   1.7258   1.7844   1.8005
     1.8538   1.8768   1.9134   1.9550   1.9827   2.0401   2.0627   2.0899
     2.1717   2.2356   2.2583   2.2943   2.3974   2.5261   2.7547   2.9514

          k =-0.3750-0.1250-0.1250 (132608 PWs)   bands (ev):

   -18.6246 -18.5558 -18.4696 -18.4388 -18.4200 -18.3742 -18.3729 -18.3670
   -18.3603 -18.3557 -18.3042 -18.2936 -18.2904 -18.2852 -18.2775 -18.2599
   -18.2572 -18.2484 -18.2406 -18.2378 -18.2347 -18.2333 -18.2281 -18.2241
   -18.2240 -18.2188 -18.2104 -18.1978 -18.1895 -18.1836 -18.1678 -18.1650
   -18.1633 -18.1587 -18.1566 -18.1557 -18.1493 -18.1472 -18.1426 -18.1380
   -18.1361 -18.1343 -18.1310 -18.1008 -18.0873 -18.0839 -18.0742 -18.0568
    -9.5319  -9.3759  -9.2930  -9.2145  -9.1824  -9.1214  -9.0762  -9.0158
    -8.9983  -8.9636  -8.9479  -8.9071  -8.8941  -8.8774  -8.8256  -8.7863
    -8.7604  -8.7125  -8.6682  -8.6459  -8.5984  -8.5580  -8.5396  -8.4805
    -5.3937  -5.3870  -5.3668  -5.3316  -5.3127  -5.3011  -5.2423  -5.2280
    -5.2188  -5.2098  -5.2020  -5.1940  -5.1875  -5.1780  -5.1708  -5.0288
    -5.0160  -4.9983  -4.9673  -4.9560  -4.9400  -4.9289  -4.9228  -4.9104
    -4.3459  -4.1048  -3.8358  -3.7545  -3.5745  -3.5089  -3.1964  -2.9478
    -0.7579  -0.6980  -0.6597  -0.6206  -0.5592  -0.4874  -0.4587  -0.3212
    -0.1587  -0.0981   0.0197   0.0883   0.4066   0.4491   0.4542   0.5287
     0.5681   0.5855   0.6513   0.6914   0.6983   0.7278   0.7619   0.8081
     0.8536   0.9134   0.9857   1.0558   1.0944   1.1085   1.1242   1.1564
     1.1808   1.2089   1.2565   1.2823   1.2998   1.3320   1.3471   1.3794
     1.4152   1.4358   1.4527   1.4645   1.4879   1.5099   1.5434   1.5668
     1.5997   1.6326   1.6611   1.6943   1.7215   1.7428   1.7896   1.8243
     1.8527   1.8796   1.9062   1.9094   1.9750   2.0380   2.0569   2.1095
     2.1833   2.2044   2.2495   2.3126   2.4152   2.5267   2.7346   2.9669

          k = 0.3750 0.1250-0.1250 (132608 PWs)   bands (ev):

   -18.6246 -18.5558 -18.4696 -18.4388 -18.4200 -18.3742 -18.3729 -18.3670
   -18.3603 -18.3557 -18.3042 -18.2936 -18.2904 -18.2852 -18.2775 -18.2599
   -18.2572 -18.2484 -18.2406 -18.2378 -18.2347 -18.2333 -18.2281 -18.2241
   -18.2240 -18.2188 -18.2104 -18.1978 -18.1895 -18.1836 -18.1678 -18.1650
   -18.1633 -18.1587 -18.1566 -18.1557 -18.1493 -18.1472 -18.1426 -18.1380
   -18.1361 -18.1343 -18.1310 -18.1008 -18.0873 -18.0839 -18.0742 -18.0568
    -9.5323  -9.3751  -9.2865  -9.2292  -9.1803  -9.1127  -9.0814  -9.0089
    -9.0001  -8.9672  -8.9451  -8.9107  -8.8970  -8.8713  -8.8230  -8.7920
    -8.7609  -8.7121  -8.6605  -8.6529  -8.5982  -8.5585  -8.5382  -8.4809
    -5.3937  -5.3870  -5.3668  -5.3317  -5.3127  -5.3010  -5.2423  -5.2280
    -5.2187  -5.2098  -5.2023  -5.1940  -5.1874  -5.1777  -5.1710  -5.0287
    -5.0159  -4.9984  -4.9674  -4.9560  -4.9400  -4.9289  -4.9228  -4.9105
    -4.3457  -4.1063  -3.8294  -3.7562  -3.5766  -3.5127  -3.1950  -2.9464
    -0.7726  -0.6799  -0.6620  -0.6144  -0.5560  -0.5028  -0.4575  -0.3423
    -0.1446  -0.0747   0.0291   0.0963   0.3838   0.4353   0.4569   0.5123
     0.5737   0.5858   0.6575   0.6654   0.7094   0.7238   0.7541   0.8086
     0.8782   0.9162   0.9808   1.0163   1.1121   1.1186   1.1492   1.1689
     1.2059   1.2199   1.2570   1.2715   1.2959   1.3140   1.3653   1.3737
     1.4027   1.4309   1.4451   1.4642   1.4826   1.5140   1.5336   1.5586
     1.6188   1.6298   1.6768   1.6919   1.7118   1.7362   1.7754   1.8187
     1.8408   1.8821   1.9008   1.9214   1.9680   2.0415   2.0758   2.1133
     2.1823   2.2237   2.2468   2.3020   2.4379   2.5063   2.7288   2.9716

          k =-0.3750 0.1250 0.1250 (132608 PWs)   bands (ev):

   -18.6246 -18.5558 -18.4696 -18.4388 -18.4200 -18.3742 -18.3729 -18.3670
   -18.3603 -18.3557 -18.3042 -18.2936 -18.2904 -18.2852 -18.2775 -18.2599
   -18.2572 -18.2484 -18.2406 -18.2378 -18.2347 -18.2333 -18.2281 -18.2241
   -18.2240 -18.2188 -18.2104 -18.1978 -18.1895 -18.1836 -18.1678 -18.1650
   -18.1633 -18.1587 -18.1566 -18.1557 -18.1493 -18.1472 -18.1426 -18.1380
   -18.1361 -18.1343 -18.1310 -18.1008 -18.0873 -18.0839 -18.0742 -18.0568
    -9.5319  -9.3755  -9.2941  -9.2164  -9.1802  -9.1187  -9.0769  -9.0140
    -9.0026  -8.9625  -8.9527  -8.9071  -8.8916  -8.8712  -8.8271  -8.7889
    -8.7620  -8.7123  -8.6600  -8.6527  -8.5985  -8.5589  -8.5383  -8.4807
    -5.3937  -5.3871  -5.3668  -5.3316  -5.3128  -5.3010  -5.2423  -5.2281
    -5.2189  -5.2098  -5.2019  -5.1940  -5.1874  -5.1781  -5.1709  -5.0287
    -5.0160  -4.9983  -4.9672  -4.9562  -4.9401  -4.9289  -4.9228  -4.9105
    -4.3449  -4.1056  -3.8360  -3.7556  -3.5733  -3.5097  -3.1950  -2.9479
    -0.7714  -0.7058  -0.6641  -0.5996  -0.5557  -0.4870  -0.4585  -0.3350
    -0.1402  -0.0916   0.0327   0.1019   0.3928   0.4221   0.4562   0.5156
     0.5672   0.5995   0.6347   0.6610   0.6848   0.7349   0.7782   0.8130
     0.8699   0.9147   0.9667   1.0485   1.1049   1.1273   1.1528   1.1640
     1.1863   1.2130   1.2662   1.2897   1.3018   1.3147   1.3479   1.3592
     1.3948   1.4162   1.4358   1.4685   1.4874   1.5352   1.5436   1.5662
     1.6216   1.6401   1.6638   1.7108   1.7159   1.7343   1.7691   1.7917
     1.8445   1.8775   1.9181   1.9398   1.9928   2.0192   2.0602   2.1147
     2.1671   2.2069   2.2636   2.2935   2.4373   2.5230   2.7318   2.9653

          k =-0.1250 0.3750 0.1250 (132608 PWs)   bands (ev):

   -18.6246 -18.5558 -18.4696 -18.4388 -18.4200 -18.3742 -18.3729 -18.3670
   -18.3603 -18.3557 -18.3042 -18.2936 -18.2904 -18.2852 -18.2775 -18.2599
   -18.2572 -18.2484 -18.2406 -18.2378 -18.2347 -18.2333 -18.2281 -18.2241
   -18.2240 -18.2188 -18.2104 -18.1978 -18.1895 -18.1836 -18.1678 -18.1649
   -18.1633 -18.1587 -18.1565 -18.1558 -18.1493 -18.1472 -18.1426 -18.1380
   -18.1361 -18.1343 -18.1310 -18.1008 -18.0873 -18.0839 -18.0742 -18.0568
    -9.5285  -9.3876  -9.2847  -9.2155  -9.1745  -9.1152  -9.0789  -9.0330
    -9.0039  -8.9856  -8.9296  -8.9179  -8.8780  -8.8574  -8.8296  -8.7757
    -8.7611  -8.6990  -8.6924  -8.6579  -8.6016  -8.5584  -8.5249  -8.4841
    -5.3938  -5.3871  -5.3668  -5.3315  -5.3126  -5.3010  -5.2424  -5.2287
    -5.2185  -5.2099  -5.2014  -5.1924  -5.1887  -5.1782  -5.1711  -5.0288
    -5.0159  -4.9983  -4.9673  -4.9562  -4.9405  -4.9286  -4.9221  -4.9108
    -4.3386  -4.0811  -3.8644  -3.7757  -3.5211  -3.5022  -3.2540  -2.9650
    -0.7352  -0.7016  -0.6851  -0.5627  -0.5306  -0.4745  -0.3566  -0.2731
    -0.2183  -0.1085  -0.0109   0.0506   0.4239   0.4456   0.4676   0.5323
     0.5658   0.6002   0.6219   0.6509   0.6793   0.7224   0.7404   0.8379
     0.8664   0.8977   0.9735   1.0390   1.0506   1.0881   1.1359   1.1472
     1.2044   1.2270   1.2623   1.2722   1.2983   1.3276   1.3584   1.3804
     1.3910   1.4192   1.4480   1.4979   1.5031   1.5359   1.5677   1.5865
     1.6023   1.6114   1.6811   1.7015   1.7389   1.7618   1.7761   1.7950
     1.8510   1.8770   1.8999   1.9078   1.9733   2.0198   2.0607   2.0970
     2.1369   2.1805   2.2304   2.3135   2.4492   2.5358   2.7328   2.8867

          k =-0.1250-0.3750-0.1250 (132608 PWs)   bands (ev):

   -18.6246 -18.5558 -18.4696 -18.4388 -18.4200 -18.3742 -18.3729 -18.3670
   -18.3603 -18.3557 -18.3042 -18.2936 -18.2904 -18.2852 -18.2775 -18.2599
   -18.2572 -18.2484 -18.2406 -18.2378 -18.2347 -18.2333 -18.2281 -18.2241
   -18.2240 -18.2188 -18.2104 -18.1978 -18.1895 -18.1836 -18.1678 -18.1649
   -18.1633 -18.1587 -18.1565 -18.1558 -18.1493 -18.1472 -18.1426 -18.1380
   -18.1361 -18.1343 -18.1310 -18.1008 -18.0873 -18.0839 -18.0742 -18.0568
    -9.5285  -9.3877  -9.2845  -9.2124  -9.1775  -9.1163  -9.0805  -9.0324
    -9.0025  -8.9826  -8.9306  -8.9147  -8.8832  -8.8592  -8.8307  -8.7713
    -8.7601  -8.7007  -8.6938  -8.6566  -8.6012  -8.5581  -8.5258  -8.4838
    -5.3938  -5.3870  -5.3669  -5.3315  -5.3126  -5.3011  -5.2425  -5.2287
    -5.2184  -5.2099  -5.2015  -5.1924  -5.1888  -5.1782  -5.1711  -5.0288
    -5.0159  -4.9984  -4.9674  -4.9560  -4.9404  -4.9287  -4.9221  -4.9107
    -4.3390  -4.0813  -3.8642  -3.7750  -3.5155  -3.5057  -3.2573  -2.9644
    -0.7151  -0.6933  -0.6706  -0.5965  -0.5413  -0.4720  -0.3573  -0.3040
    -0.2140  -0.0850  -0.0110   0.0418   0.4214   0.4463   0.4743   0.5347
     0.5772   0.6098   0.6164   0.6545   0.6915   0.7190   0.7389   0.8238
     0.8616   0.9183   0.9907   1.0149   1.0505   1.0950   1.1253   1.1603
     1.1837   1.2081   1.2437   1.2685   1.3033   1.3148   1.3501   1.4048
     1.4187   1.4368   1.4611   1.4879   1.5059   1.5241   1.5536   1.5684
     1.6072   1.6349   1.6664   1.7086   1.7368   1.7666   1.7873   1.8072
     1.8323   1.8685   1.8900   1.9013   1.9759   2.0571   2.0707   2.0905
     2.1321   2.1670   2.2175   2.3112   2.4458   2.5695   2.6922   2.8971

          k = 0.1250 0.3750-0.1250 (132608 PWs)   bands (ev):

   -18.6246 -18.5558 -18.4696 -18.4388 -18.4200 -18.3742 -18.3729 -18.3670
   -18.3603 -18.3557 -18.3042 -18.2936 -18.2904 -18.2852 -18.2775 -18.2599
   -18.2572 -18.2484 -18.2406 -18.2378 -18.2347 -18.2333 -18.2281 -18.2241
   -18.2240 -18.2188 -18.2104 -18.1978 -18.1895 -18.1836 -18.1678 -18.1649
   -18.1633 -18.1587 -18.1565 -18.1558 -18.1493 -18.1472 -18.1426 -18.1380
   -18.1361 -18.1343 -18.1310 -18.1008 -18.0873 -18.0839 -18.0742 -18.0568
    -9.5290  -9.3866  -9.2760  -9.2332  -9.1690  -9.1101  -9.0828  -9.0306
    -9.0053  -8.9836  -8.9245  -8.9204  -8.8828  -8.8582  -8.8278  -8.7744
    -8.7612  -8.7021  -8.6915  -8.6574  -8.6010  -8.5581  -8.5248  -8.4844
    -5.3938  -5.3870  -5.3669  -5.3316  -5.3125  -5.3011  -5.2425  -5.2287
    -5.2183  -5.2099  -5.2018  -5.1924  -5.1887  -5.1779  -5.1713  -5.0288
    -5.0158  -4.9984  -4.9675  -4.9560  -4.9404  -4.9287  -4.9221  -4.9108
    -4.3399  -4.0780  -3.8654  -3.7760  -3.5243  -3.4973  -3.2588  -2.9622
    -0.7342  -0.7101  -0.6635  -0.5628  -0.5391  -0.4777  -0.3513  -0.2802
    -0.2292  -0.0919  -0.0188   0.0351   0.4235   0.4513   0.4752   0.5335
     0.5805   0.6033   0.6164   0.6594   0.6853   0.7164   0.7467   0.8054
     0.8783   0.9094   0.9838   1.0280   1.0438   1.0785   1.1376   1.1516
     1.2100   1.2202   1.2357   1.2670   1.3028   1.3329   1.3623   1.3979
     1.4112   1.4457   1.4517   1.4816   1.4968   1.5360   1.5578   1.5713
     1.5930   1.6302   1.6581   1.7135   1.7304   1.7486   1.7872   1.8007
     1.8308   1.8749   1.8890   1.9155   1.9711   2.0288   2.0711   2.1055
     2.1428   2.1798   2.2309   2.3165   2.4610   2.5186   2.7108   2.9070

          k = 0.1250-0.3750 0.1250 (132608 PWs)   bands (ev):

   -18.6246 -18.5558 -18.4696 -18.4388 -18.4200 -18.3742 -18.3729 -18.3670
   -18.3603 -18.3557 -18.3042 -18.2936 -18.2904 -18.2852 -18.2775 -18.2599
   -18.2572 -18.2484 -18.2406 -18.2378 -18.2347 -18.2333 -18.2281 -18.2241
   -18.2240 -18.2188 -18.2104 -18.1978 -18.1895 -18.1836 -18.1678 -18.1649
   -18.1633 -18.1587 -18.1565 -18.1558 -18.1493 -18.1472 -18.1426 -18.1380
   -18.1361 -18.1343 -18.1310 -18.1008 -18.0873 -18.0839 -18.0742 -18.0568
    -9.5289  -9.3873  -9.2757  -9.2312  -9.1710  -9.1068  -9.0856  -9.0313
    -9.0026  -8.9860  -8.9299  -8.9193  -8.8782  -8.8549  -8.8304  -8.7738
    -8.7617  -8.7012  -8.6941  -8.6562  -8.6010  -8.5578  -8.5259  -8.4837
    -5.3938  -5.3870  -5.3668  -5.3315  -5.3126  -5.3011  -5.2424  -5.2288
    -5.2184  -5.2099  -5.2017  -5.1925  -5.1887  -5.1778  -5.1713  -5.0288
    -5.0158  -4.9983  -4.9673  -4.9561  -4.9406  -4.9287  -4.9221  -4.9107
    -4.3402  -4.0784  -3.8667  -3.7724  -3.5228  -3.5002  -3.2579  -2.9638
    -0.7273  -0.6841  -0.6736  -0.5967  -0.5313  -0.4696  -0.3637  -0.2824
    -0.2053  -0.1122  -0.0223   0.0390   0.4229   0.4505   0.4782   0.5337
     0.5768   0.6060   0.6157   0.6647   0.6827   0.7209   0.7505   0.8154
     0.8741   0.9112   0.9670   1.0283   1.0496   1.0867   1.1211   1.1539
     1.1853   1.2408   1.2506   1.2753   1.2925   1.3244   1.3556   1.4006
     1.4087   1.4388   1.4504   1.4840   1.5208   1.5406   1.5564   1.5674
     1.5901   1.6385   1.6656   1.6994   1.7411   1.7455   1.7763   1.7833
     1.8343   1.8748   1.9056   1.9272   1.9797   2.0381   2.0626   2.1005
     2.1276   2.1570   2.2415   2.3206   2.4332   2.5613   2.7128   2.8823

          k =-0.1250-0.3750 0.3750 (132616 PWs)   bands (ev):

   -18.6246 -18.5558 -18.4696 -18.4388 -18.4200 -18.3742 -18.3729 -18.3670
   -18.3603 -18.3557 -18.3042 -18.2936 -18.2904 -18.2852 -18.2775 -18.2598
   -18.2572 -18.2484 -18.2406 -18.2377 -18.2347 -18.2333 -18.2281 -18.2241
   -18.2240 -18.2188 -18.2104 -18.1978 -18.1895 -18.1836 -18.1678 -18.1649
   -18.1633 -18.1587 -18.1565 -18.1558 -18.1493 -18.1472 -18.1426 -18.1380
   -18.1361 -18.1343 -18.1310 -18.1008 -18.0873 -18.0839 -18.0742 -18.0568
    -9.5254  -9.3708  -9.2870  -9.2403  -9.1794  -9.1228  -9.0792  -9.0417
    -8.9968  -8.9848  -8.9286  -8.9022  -8.8770  -8.8575  -8.8236  -8.7710
    -8.7608  -8.7120  -8.6951  -8.6437  -8.5955  -8.5617  -8.5222  -8.4956
    -5.3937  -5.3870  -5.3668  -5.3315  -5.3124  -5.3010  -5.2426  -5.2286
    -5.2184  -5.2099  -5.2021  -5.1918  -5.1898  -5.1773  -5.1711  -5.0286
    -5.0159  -4.9984  -4.9675  -4.9559  -4.9404  -4.9285  -4.9222  -4.9109
    -4.2178  -4.0142  -3.9188  -3.7755  -3.5994  -3.4500  -3.3968  -3.1646
    -0.6754  -0.6258  -0.5349  -0.4133  -0.3872  -0.2843  -0.2109  -0.1295
    -0.0981  -0.0429   0.0609   0.1565   0.3624   0.4108   0.4308   0.4956
     0.5346   0.5663   0.5752   0.6183   0.6356   0.6606   0.6815   0.7690
     0.8057   0.8784   0.9032   0.9140   0.9573   1.0125   1.0580   1.1046
     1.1348   1.1831   1.1997   1.2332   1.2610   1.2909   1.3223   1.3579
     1.4037   1.4213   1.4393   1.4962   1.5151   1.5565   1.5934   1.6124
     1.6351   1.6446   1.7004   1.7260   1.7385   1.7559   1.7816   1.8062
     1.8380   1.8711   1.9080   1.9536   1.9646   1.9905   2.0126   2.0353
     2.0950   2.1139   2.1586   2.2846   2.3065   2.4278   2.4840   2.6469

          k =-0.1250 0.3750-0.3750 (132616 PWs)   bands (ev):

   -18.6246 -18.5558 -18.4696 -18.4388 -18.4200 -18.3742 -18.3729 -18.3670
   -18.3603 -18.3557 -18.3042 -18.2936 -18.2904 -18.2852 -18.2775 -18.2598
   -18.2572 -18.2484 -18.2406 -18.2377 -18.2347 -18.2333 -18.2281 -18.2241
   -18.2240 -18.2188 -18.2104 -18.1978 -18.1895 -18.1836 -18.1678 -18.1649
   -18.1633 -18.1587 -18.1565 -18.1558 -18.1493 -18.1472 -18.1426 -18.1380
   -18.1361 -18.1343 -18.1310 -18.1008 -18.0873 -18.0839 -18.0742 -18.0568
    -9.5254  -9.3717  -9.2861  -9.2395  -9.1795  -9.1226  -9.0794  -9.0428
    -8.9974  -8.9852  -8.9295  -8.9022  -8.8765  -8.8516  -8.8287  -8.7688
    -8.7606  -8.7124  -8.6974  -8.6421  -8.5959  -8.5614  -8.5236  -8.4945
    -5.3937  -5.3871  -5.3668  -5.3314  -5.3125  -5.3010  -5.2425  -5.2287
    -5.2185  -5.2099  -5.2020  -5.1919  -5.1898  -5.1772  -5.1711  -5.0286
    -5.0159  -4.9983  -4.9673  -4.9560  -4.9406  -4.9285  -4.9222  -4.9108
    -4.2185  -4.0149  -3.9196  -3.7708  -3.5999  -3.4518  -3.3964  -3.1656
    -0.6646  -0.6254  -0.5403  -0.4244  -0.3794  -0.2781  -0.2195  -0.1266
    -0.0902  -0.0473   0.0503   0.1373   0.3706   0.4105   0.4407   0.5041
     0.5267   0.5601   0.5924   0.6129   0.6392   0.6651   0.6966   0.7388
     0.8321   0.8712   0.8973   0.9147   0.9625   1.0281   1.0522   1.0836
     1.1235   1.1694   1.2044   1.2371   1.2588   1.2863   1.3215   1.3605
     1.4031   1.4245   1.4592   1.4936   1.5254   1.5500   1.5849   1.6204
     1.6377   1.6558   1.6908   1.7229   1.7498   1.7672   1.7761   1.7929
     1.8504   1.8748   1.9135   1.9545   1.9756   1.9851   2.0007   2.0362
     2.0632   2.1115   2.1562   2.2695   2.3331   2.4240   2.4874   2.6434

          k = 0.1250-0.3750-0.3750 (132616 PWs)   bands (ev):

   -18.6246 -18.5558 -18.4696 -18.4388 -18.4200 -18.3742 -18.3729 -18.3670
   -18.3603 -18.3557 -18.3042 -18.2936 -18.2904 -18.2852 -18.2775 -18.2598
   -18.2572 -18.2484 -18.2406 -18.2377 -18.2347 -18.2333 -18.2281 -18.2241
   -18.2240 -18.2188 -18.2104 -18.1978 -18.1895 -18.1836 -18.1678 -18.1649
   -18.1633 -18.1587 -18.1565 -18.1558 -18.1493 -18.1472 -18.1426 -18.1380
   -18.1361 -18.1343 -18.1310 -18.1008 -18.0873 -18.0839 -18.0742 -18.0568
    -9.5250  -9.3719  -9.2944  -9.2279  -9.1755  -9.1342  -9.0752  -9.0409
    -8.9994  -8.9853  -8.9304  -8.8998  -8.8772  -8.8537  -8.8276  -8.7708
    -8.7601  -8.7105  -8.6956  -8.6437  -8.5960  -8.5620  -8.5223  -8.4952
    -5.3937  -5.3871  -5.3668  -5.3315  -5.3125  -5.3009  -5.2425  -5.2287
    -5.2186  -5.2098  -5.2017  -5.1917  -5.1899  -5.1776  -5.1709  -5.0286
    -5.0159  -4.9983  -4.9673  -4.9560  -4.9405  -4.9284  -4.9222  -4.9108
    -4.2134  -4.0260  -3.9220  -3.7438  -3.6347  -3.4382  -3.3894  -3.1696
    -0.6784  -0.6316  -0.5434  -0.4115  -0.3437  -0.3025  -0.2479  -0.1245
    -0.0811  -0.0352   0.0943   0.1774   0.3172   0.4037   0.4337   0.4575
     0.5350   0.5654   0.5792   0.6057   0.6385   0.6642   0.6963   0.7687
     0.8016   0.8709   0.9109   0.9274   0.9764   1.0067   1.0550   1.1105
     1.1348   1.1748   1.2052   1.2274   1.2670   1.2882   1.3319   1.3554
     1.3719   1.4214   1.4365   1.4830   1.5318   1.5712   1.5886   1.6049
     1.6409   1.6668   1.6939   1.7099   1.7528   1.7712   1.7942   1.8154
     1.8326   1.8747   1.9069   1.9442   1.9712   1.9935   2.0204   2.0282
     2.0746   2.1069   2.1331   2.2512   2.3399   2.4437   2.4963   2.6375

          k = 0.3750 0.1250-0.3750 (132616 PWs)   bands (ev):

   -18.6246 -18.5558 -18.4696 -18.4388 -18.4200 -18.3742 -18.3729 -18.3670
   -18.3603 -18.3557 -18.3043 -18.2936 -18.2904 -18.2852 -18.2775 -18.2598
   -18.2572 -18.2484 -18.2406 -18.2377 -18.2347 -18.2333 -18.2281 -18.2241
   -18.2240 -18.2188 -18.2104 -18.1978 -18.1895 -18.1836 -18.1678 -18.1650
   -18.1633 -18.1587 -18.1566 -18.1557 -18.1493 -18.1472 -18.1426 -18.1380
   -18.1361 -18.1343 -18.1310 -18.1008 -18.0873 -18.0839 -18.0742 -18.0568
    -9.5278  -9.3615  -9.2972  -9.2182  -9.2090  -9.1359  -9.0639  -9.0122
    -8.9876  -8.9701  -8.9504  -8.9175  -8.8847  -8.8642  -8.8224  -8.7942
    -8.7528  -8.7180  -8.6652  -8.6381  -8.5946  -8.5634  -8.5333  -8.4928
    -5.3937  -5.3870  -5.3668  -5.3317  -5.3126  -5.3010  -5.2423  -5.2279
    -5.2187  -5.2097  -5.2020  -5.1927  -5.1886  -5.1780  -5.1711  -5.0286
    -5.0159  -4.9985  -4.9674  -4.9560  -4.9399  -4.9287  -4.9230  -4.9104
    -4.2217  -4.0149  -3.9548  -3.7539  -3.6297  -3.4108  -3.3688  -3.1519
    -0.7484  -0.6038  -0.5466  -0.4848  -0.3965  -0.3005  -0.2312  -0.1359
    -0.0839   0.0284   0.0879   0.2084   0.2796   0.3419   0.4342   0.4643
     0.5233   0.5618   0.6120   0.6418   0.6593   0.6785   0.7125   0.7678
     0.8190   0.8754   0.9070   0.9533   1.0068   1.0144   1.0724   1.0984
     1.1301   1.1528   1.1835   1.2381   1.2650   1.2727   1.3328   1.3524
     1.3988   1.4276   1.4591   1.4759   1.5154   1.5321   1.5829   1.6058
     1.6444   1.6622   1.6908   1.7018   1.7225   1.7356   1.7759   1.8029
     1.8434   1.9004   1.9142   1.9606   1.9654   1.9962   2.0271   2.0809
     2.1029   2.1328   2.1871   2.2165   2.2833   2.4664   2.5347   2.6759

          k =-0.3750-0.1250-0.3750 (132616 PWs)   bands (ev):

   -18.6246 -18.5558 -18.4696 -18.4388 -18.4200 -18.3742 -18.3729 -18.3670
   -18.3603 -18.3557 -18.3043 -18.2936 -18.2904 -18.2852 -18.2775 -18.2598
   -18.2572 -18.2484 -18.2406 -18.2377 -18.2347 -18.2333 -18.2281 -18.2241
   -18.2240 -18.2188 -18.2104 -18.1978 -18.1895 -18.1836 -18.1678 -18.1650
   -18.1633 -18.1587 -18.1566 -18.1557 -18.1493 -18.1472 -18.1426 -18.1380
   -18.1361 -18.1343 -18.1310 -18.1008 -18.0873 -18.0839 -18.0742 -18.0568
    -9.5274  -9.3629  -9.3006  -9.2199  -9.1895  -9.1514  -9.0591  -9.0180
    -8.9882  -8.9649  -8.9521  -8.9155  -8.8867  -8.8654  -8.8254  -8.7885
    -8.7520  -8.7186  -8.6692  -8.6344  -8.5951  -8.5631  -8.5348  -8.4921
    -5.3937  -5.3870  -5.3668  -5.3316  -5.3127  -5.3011  -5.2423  -5.2279
    -5.2187  -5.2097  -5.2017  -5.1928  -5.1887  -5.1783  -5.1709  -5.0287
    -5.0160  -4.9984  -4.9673  -4.9560  -4.9399  -4.9287  -4.9230  -4.9104
    -4.2212  -4.0205  -3.9446  -3.7722  -3.6140  -3.4025  -3.3771  -3.1546
    -0.7452  -0.6026  -0.5548  -0.4858  -0.3765  -0.2920  -0.2247  -0.1681
    -0.0416  -0.0180   0.0379   0.1729   0.3279   0.4048   0.4662   0.4738
     0.5297   0.5525   0.5910   0.6159   0.6654   0.6765   0.7365   0.7604
     0.8002   0.8797   0.9115   0.9495   1.0013   1.0121   1.0595   1.0701
     1.1035   1.1682   1.2000   1.2423   1.2539   1.3108   1.3175   1.3548
     1.4052   1.4312   1.4522   1.4918   1.5084   1.5343   1.5724   1.6030
     1.6255   1.6575   1.6869   1.7084   1.7354   1.7551   1.7820   1.8429
     1.8592   1.8812   1.9134   1.9304   1.9671   1.9831   2.0239   2.0706
     2.1044   2.1436   2.1762   2.2145   2.2756   2.4662   2.5718   2.6532

          k = 0.3750-0.1250 0.3750 (132616 PWs)   bands (ev):

   -18.6246 -18.5558 -18.4696 -18.4388 -18.4200 -18.3742 -18.3729 -18.3670
   -18.3603 -18.3557 -18.3043 -18.2936 -18.2904 -18.2852 -18.2775 -18.2598
   -18.2572 -18.2484 -18.2406 -18.2377 -18.2347 -18.2333 -18.2281 -18.2241
   -18.2240 -18.2188 -18.2104 -18.1978 -18.1895 -18.1836 -18.1678 -18.1650
   -18.1633 -18.1587 -18.1566 -18.1557 -18.1493 -18.1472 -18.1426 -18.1380
   -18.1361 -18.1343 -18.1310 -18.1008 -18.0873 -18.0839 -18.0742 -18.0568
    -9.5277  -9.3631  -9.2938  -9.2267  -9.2004  -9.1379  -9.0612  -9.0160
    -8.9882  -8.9715  -8.9512  -8.9084  -8.8920  -8.8615  -8.8235  -8.7920
    -8.7527  -8.7185  -8.6693  -8.6342  -8.5955  -8.5632  -8.5342  -8.4921
    -5.3936  -5.3871  -5.3667  -5.3316  -5.3127  -5.3010  -5.2423  -5.2281
    -5.2187  -5.2097  -5.2020  -5.1928  -5.1887  -5.1779  -5.1710  -5.0286
    -5.0159  -4.9984  -4.9673  -4.9561  -4.9401  -4.9287  -4.9230  -4.9104
    -4.2233  -4.0207  -3.9427  -3.7594  -3.6302  -3.3985  -3.3791  -3.1531
    -0.7552  -0.5871  -0.5583  -0.4821  -0.3737  -0.2918  -0.2151  -0.1731
    -0.0521  -0.0231   0.0425   0.1625   0.3223   0.4149   0.4630   0.4794
     0.5183   0.5513   0.5839   0.6299   0.6639   0.6779   0.7279   0.7798
     0.8082   0.8667   0.9190   0.9483   0.9936   1.0194   1.0367   1.0725
     1.1236   1.1760   1.1894   1.2343   1.2618   1.3125   1.3319   1.3581
     1.3895   1.4082   1.4586   1.4797   1.5320   1.5445   1.5877   1.6013
     1.6224   1.6601   1.6856   1.6952   1.7170   1.7602   1.7790   1.8288
     1.8594   1.8860   1.9297   1.9503   1.9565   1.9898   2.0310   2.0676
     2.1020   2.1394   2.1646   2.1968   2.2933   2.4471   2.5889   2.6540

          k =-0.3750 0.1250 0.3750 (132616 PWs)   bands (ev):

   -18.6246 -18.5558 -18.4696 -18.4388 -18.4200 -18.3742 -18.3729 -18.3670
   -18.3603 -18.3557 -18.3043 -18.2936 -18.2904 -18.2852 -18.2775 -18.2598
   -18.2572 -18.2484 -18.2406 -18.2377 -18.2347 -18.2333 -18.2281 -18.2241
   -18.2240 -18.2188 -18.2104 -18.1978 -18.1895 -18.1836 -18.1678 -18.1650
   -18.1633 -18.1587 -18.1566 -18.1557 -18.1493 -18.1472 -18.1426 -18.1380
   -18.1361 -18.1343 -18.1310 -18.1008 -18.0873 -18.0839 -18.0742 -18.0568
    -9.5274  -9.3619  -9.3029  -9.2217  -9.1856  -9.1511  -9.0590  -9.0151
    -8.9939  -8.9681  -8.9522  -8.9131  -8.8849  -8.8600  -8.8290  -8.7893
    -8.7541  -8.7183  -8.6651  -8.6376  -8.5949  -8.5639  -8.5333  -8.4925
    -5.3936  -5.3871  -5.3667  -5.3317  -5.3127  -5.3010  -5.2423  -5.2280
    -5.2188  -5.2097  -5.2017  -5.1927  -5.1886  -5.1783  -5.1709  -5.0286
    -5.0160  -4.9984  -4.9673  -4.9562  -4.9399  -4.9287  -4.9230  -4.9104
    -4.2192  -4.0185  -3.9533  -3.7662  -3.6143  -3.4137  -3.3673  -3.1538
    -0.7566  -0.5939  -0.5601  -0.4896  -0.3854  -0.2968  -0.2168  -0.1401
    -0.0758   0.0376   0.0782   0.2056   0.2793   0.3397   0.4176   0.4564
     0.5309   0.5668   0.6071   0.6280   0.6606   0.6779   0.7061   0.7878
     0.8270   0.8642   0.8987   0.9445   1.0148   1.0273   1.0670   1.1042
     1.1343   1.1574   1.1949   1.2322   1.2658   1.2906   1.3024   1.3556
     1.3778   1.4127   1.4523   1.4917   1.5241   1.5492   1.5775   1.6020
     1.6399   1.6651   1.6919   1.7088   1.7320   1.7499   1.7746   1.8119
     1.8346   1.8948   1.9423   1.9464   1.9731   2.0013   2.0111   2.0585
     2.1074   2.1302   2.1582   2.2071   2.3151   2.4533   2.5505   2.6762

          k = 0.3750-0.3750 0.1250 (132616 PWs)   bands (ev):

   -18.6246 -18.5558 -18.4696 -18.4388 -18.4200 -18.3742 -18.3729 -18.3670
   -18.3603 -18.3557 -18.3042 -18.2936 -18.2904 -18.2852 -18.2775 -18.2599
   -18.2572 -18.2484 -18.2406 -18.2378 -18.2347 -18.2333 -18.2281 -18.2241
   -18.2240 -18.2188 -18.2104 -18.1978 -18.1895 -18.1836 -18.1678 -18.1649
   -18.1633 -18.1587 -18.1565 -18.1558 -18.1493 -18.1472 -18.1426 -18.1380
   -18.1361 -18.1343 -18.1310 -18.1008 -18.0873 -18.0839 -18.0742 -18.0568
    -9.5261  -9.3718  -9.2948  -9.2235  -9.1785  -9.1162  -9.0931  -9.0376
    -9.0061  -8.9763  -8.9332  -8.9030  -8.8788  -8.8656  -8.8262  -8.7709
    -8.7537  -8.7115  -8.6710  -8.6517  -8.6008  -8.5602  -8.5397  -8.4843
    -5.3937  -5.3870  -5.3668  -5.3316  -5.3126  -5.3011  -5.2422  -5.2281
    -5.2186  -5.2099  -5.2019  -5.1926  -5.1889  -5.1779  -5.1711  -5.0288
    -5.0157  -4.9985  -4.9671  -4.9561  -4.9403  -4.9291  -4.9222  -4.9108
    -4.2270  -4.0041  -3.9454  -3.7438  -3.6239  -3.4502  -3.3697  -3.1547
    -0.6979  -0.6462  -0.6191  -0.4351  -0.3546  -0.2867  -0.1894  -0.1483
    -0.0705  -0.0033   0.0923   0.1225   0.3639   0.4284   0.4433   0.4652
     0.5099   0.5411   0.5789   0.6066   0.6365   0.6984   0.7159   0.7376
     0.8049   0.8492   0.9309   0.9732   0.9921   1.0504   1.0848   1.1064
     1.1286   1.1657   1.2149   1.2257   1.2408   1.2797   1.3126   1.3727
     1.3822   1.4037   1.4368   1.4790   1.5113   1.5361   1.5604   1.5915
     1.6241   1.6669   1.6922   1.7133   1.7404   1.7646   1.7897   1.8116
     1.8592   1.9011   1.9141   1.9540   1.9755   1.9967   2.0288   2.0562
     2.0814   2.1423   2.1946   2.2250   2.2687   2.4209   2.5277   2.6418

          k =-0.3750-0.3750-0.1250 (132616 PWs)   bands (ev):

   -18.6246 -18.5558 -18.4696 -18.4388 -18.4200 -18.3742 -18.3729 -18.3670
   -18.3603 -18.3557 -18.3042 -18.2936 -18.2904 -18.2852 -18.2775 -18.2599
   -18.2572 -18.2484 -18.2406 -18.2378 -18.2347 -18.2333 -18.2281 -18.2241
   -18.2240 -18.2188 -18.2104 -18.1978 -18.1895 -18.1836 -18.1678 -18.1649
   -18.1633 -18.1587 -18.1565 -18.1558 -18.1493 -18.1472 -18.1426 -18.1380
   -18.1361 -18.1343 -18.1310 -18.1008 -18.0873 -18.0839 -18.0742 -18.0568
    -9.5258  -9.3715  -9.3020  -9.2082  -9.1813  -9.1270  -9.0881  -9.0374
    -9.0094  -8.9727  -8.9324  -8.8991  -8.8809  -8.8709  -8.8281  -8.7641
    -8.7558  -8.7115  -8.6714  -8.6518  -8.6005  -8.5601  -8.5400  -8.4844
    -5.3937  -5.3870  -5.3668  -5.3316  -5.3126  -5.3011  -5.2423  -5.2280
    -5.2186  -5.2099  -5.2016  -5.1926  -5.1889  -5.1783  -5.1709  -5.0288
    -5.0157  -4.9985  -4.9672  -4.9560  -4.9402  -4.9291  -4.9222  -4.9108
    -4.2250  -4.0011  -3.9524  -3.7510  -3.6151  -3.4333  -3.3872  -3.1537
    -0.6873  -0.6524  -0.6255  -0.4186  -0.3738  -0.2935  -0.1983  -0.1585
    -0.0564   0.0460   0.0809   0.1051   0.3590   0.4150   0.4429   0.4862
     0.5245   0.5459   0.5786   0.6017   0.6296   0.6862   0.7194   0.7499
     0.7857   0.8400   0.9348   0.9931   1.0214   1.0495   1.0578   1.0918
     1.1262   1.1652   1.1864   1.2306   1.2479   1.2913   1.2985   1.3654
     1.3868   1.4323   1.4412   1.4772   1.4843   1.5313   1.5616   1.6066
     1.6223   1.6570   1.6865   1.7386   1.7554   1.7870   1.8023   1.8224
     1.8444   1.8924   1.8999   1.9317   1.9719   1.9871   2.0306   2.0757
     2.1048   2.1202   2.1749   2.2049   2.2955   2.4445   2.4873   2.6650

          k = 0.3750 0.3750-0.1250 (132616 PWs)   bands (ev):

   -18.6246 -18.5558 -18.4696 -18.4388 -18.4200 -18.3742 -18.3729 -18.3670
   -18.3603 -18.3557 -18.3042 -18.2936 -18.2904 -18.2852 -18.2775 -18.2599
   -18.2572 -18.2484 -18.2406 -18.2378 -18.2347 -18.2333 -18.2281 -18.2241
   -18.2240 -18.2188 -18.2104 -18.1978 -18.1895 -18.1836 -18.1678 -18.1649
   -18.1633 -18.1587 -18.1565 -18.1558 -18.1493 -18.1472 -18.1426 -18.1380
   -18.1361 -18.1343 -18.1310 -18.1008 -18.0873 -18.0839 -18.0742 -18.0568
    -9.5262  -9.3707  -9.2962  -9.2246  -9.1769  -9.1193  -9.0903  -9.0361
    -9.0079  -8.9762  -8.9297  -8.8996  -8.8852  -8.8674  -8.8254  -8.7693
    -8.7550  -8.7115  -8.6656  -8.6572  -8.6003  -8.5607  -8.5385  -8.4849
    -5.3937  -5.3870  -5.3668  -5.3317  -5.3126  -5.3011  -5.2423  -5.2280
    -5.2185  -5.2099  -5.2020  -5.1926  -5.1888  -5.1779  -5.1712  -5.0288
    -5.0157  -4.9986  -4.9673  -4.9560  -4.9401  -4.9291  -4.9222  -4.9108
    -4.2263  -4.0012  -3.9493  -3.7418  -3.6306  -3.4346  -3.3828  -3.1516
    -0.6988  -0.6566  -0.6190  -0.4138  -0.3662  -0.2998  -0.1903  -0.1519
    -0.0596   0.0528   0.0843   0.1045   0.3384   0.4156   0.4442   0.4823
     0.5096   0.5530   0.5812   0.5932   0.6258   0.6898   0.7231   0.7538
     0.7815   0.8444   0.9359   0.9961   1.0066   1.0450   1.0680   1.0968
     1.1380   1.1616   1.2028   1.2265   1.2678   1.2864   1.3137   1.3653
     1.3833   1.3945   1.4355   1.4791   1.4999   1.5336   1.5653   1.6015
     1.6207   1.6576   1.6906   1.7222   1.7460   1.7668   1.8001   1.8251
     1.8468   1.8884   1.9106   1.9326   1.9550   1.9895   2.0477   2.0835
     2.1143   2.1323   2.1761   2.1977   2.3005   2.4357   2.4855   2.6691

          k =-0.3750 0.3750 0.1250 (132616 PWs)   bands (ev):

   -18.6246 -18.5558 -18.4696 -18.4388 -18.4200 -18.3742 -18.3729 -18.3670
   -18.3603 -18.3557 -18.3042 -18.2936 -18.2904 -18.2852 -18.2775 -18.2599
   -18.2572 -18.2484 -18.2406 -18.2378 -18.2347 -18.2333 -18.2281 -18.2241
   -18.2240 -18.2188 -18.2104 -18.1978 -18.1895 -18.1836 -18.1678 -18.1649
   -18.1633 -18.1587 -18.1565 -18.1558 -18.1493 -18.1472 -18.1426 -18.1380
   -18.1361 -18.1343 -18.1310 -18.1008 -18.0873 -18.0839 -18.0742 -18.0568
    -9.5258  -9.3713  -9.3024  -9.2126  -9.1766  -9.1262  -9.0868  -9.0375
    -9.0104  -8.9766  -8.9335  -8.9014  -8.8744  -8.8683  -8.8282  -8.7681
    -8.7561  -8.7116  -8.6650  -8.6569  -8.6006  -8.5611  -8.5386  -8.4847
    -5.3937  -5.3870  -5.3668  -5.3316  -5.3126  -5.3011  -5.2422  -5.2281
    -5.2187  -5.2098  -5.2016  -5.1925  -5.1889  -5.1783  -5.1710  -5.0288
    -5.0157  -4.9985  -4.9671  -4.9562  -4.9402  -4.9290  -4.9222  -4.9108
    -4.2242  -4.0037  -3.9485  -3.7561  -3.6118  -3.4475  -3.3708  -3.1557
    -0.6919  -0.6603  -0.6369  -0.4277  -0.3477  -0.2805  -0.1767  -0.1457
    -0.0660   0.0108   0.0933   0.1296   0.3607   0.4091   0.4340   0.4666
     0.4921   0.5345   0.5724   0.6099   0.6333   0.6832   0.7090   0.7647
     0.8072   0.8412   0.9242   0.9782   1.0119   1.0534   1.0970   1.1022
     1.1491   1.1686   1.2041   1.2247   1.2413   1.2646   1.3133   1.3517
     1.3805   1.3993   1.4397   1.4781   1.5140   1.5251   1.5736   1.6062
     1.6335   1.6698   1.6828   1.7168   1.7615   1.7699   1.7947   1.8147
     1.8478   1.8896   1.9211   1.9439   1.9591   1.9833   2.0298   2.0531
     2.1076   2.1408   2.1772   2.2341   2.2735   2.4115   2.5216   2.6637

          k =-0.3750-0.3750 0.3750 (132612 PWs)   bands (ev):

   -18.6246 -18.5558 -18.4696 -18.4388 -18.4200 -18.3742 -18.3729 -18.3670
   -18.3603 -18.3557 -18.3042 -18.2936 -18.2904 -18.2852 -18.2775 -18.2598
   -18.2572 -18.2484 -18.2406 -18.2377 -18.2347 -18.2333 -18.2281 -18.2241
   -18.2240 -18.2188 -18.2104 -18.1978 -18.1895 -18.1836 -18.1678 -18.1649
   -18.1633 -18.1587 -18.1565 -18.1558 -18.1493 -18.1472 -18.1426 -18.1380
   -18.1361 -18.1343 -18.1310 -18.1008 -18.0873 -18.0839 -18.0742 -18.0568
    -9.5234  -9.3564  -9.2850  -9.2409  -9.2050  -9.1353  -9.0773  -9.0422
    -9.0030  -8.9765  -8.9114  -8.9036  -8.8795  -8.8675  -8.8274  -8.7668
    -8.7514  -8.7178  -8.6694  -8.6420  -8.5982  -8.5658  -8.5333  -8.4954
    -5.3937  -5.3870  -5.3668  -5.3317  -5.3125  -5.3011  -5.2423  -5.2280
    -5.2187  -5.2097  -5.2023  -5.1919  -5.1899  -5.1773  -5.1709  -5.0286
    -5.0157  -4.9986  -4.9673  -4.9559  -4.9399  -4.9288  -4.9223  -4.9108
    -4.1122  -3.9227  -3.8441  -3.7973  -3.6169  -3.5679  -3.5424  -3.3399
    -0.4907  -0.4203  -0.3417  -0.2789  -0.2539  -0.1752  -0.1273  -0.1046
    -0.0607   0.0404   0.1227   0.2045   0.2730   0.3659   0.3816   0.4121
     0.4695   0.5001   0.5308   0.5518   0.5954   0.6514   0.6881   0.7384
     0.8202   0.8883   0.9054   0.9353   0.9704   0.9855   1.0195   1.0728
     1.0816   1.1111   1.1490   1.1747   1.1935   1.2080   1.2579   1.2739
     1.3463   1.4167   1.4281   1.4991   1.5103   1.5455   1.5800   1.6256
     1.6709   1.6824   1.7016   1.7335   1.7522   1.7686   1.7983   1.8178
     1.8510   1.8960   1.9098   1.9301   1.9713   1.9836   2.0009   2.0247
     2.0689   2.0929   2.1257   2.1461   2.1787   2.2353   2.2764   2.3738

          k =-0.3750 0.3750-0.3750 (132612 PWs)   bands (ev):

   -18.6246 -18.5558 -18.4696 -18.4388 -18.4200 -18.3742 -18.3729 -18.3670
   -18.3603 -18.3557 -18.3042 -18.2936 -18.2904 -18.2852 -18.2775 -18.2598
   -18.2572 -18.2484 -18.2406 -18.2377 -18.2347 -18.2333 -18.2281 -18.2241
   -18.2240 -18.2188 -18.2104 -18.1978 -18.1895 -18.1836 -18.1678 -18.1649
   -18.1633 -18.1587 -18.1565 -18.1558 -18.1493 -18.1472 -18.1426 -18.1380
   -18.1361 -18.1343 -18.1310 -18.1008 -18.0873 -18.0839 -18.0742 -18.0568
    -9.5233  -9.3578  -9.2827  -9.2414  -9.2049  -9.1353  -9.0764  -9.0455
    -9.0019  -8.9764  -8.9143  -8.9022  -8.8810  -8.8614  -8.8301  -8.7657
    -8.7512  -8.7181  -8.6725  -8.6388  -8.5991  -8.5655  -8.5345  -8.4946
    -5.3937  -5.3870  -5.3668  -5.3316  -5.3126  -5.3011  -5.2423  -5.2281
    -5.2187  -5.2097  -5.2022  -5.1919  -5.1899  -5.1772  -5.1709  -5.0285
    -5.0157  -4.9985  -4.9671  -4.9560  -4.9402  -4.9288  -4.9223  -4.9107
    -4.1131  -3.9313  -3.8296  -3.7975  -3.6214  -3.5650  -3.5447  -3.3412
    -0.4943  -0.3803  -0.3481  -0.3137  -0.2173  -0.1861  -0.1490  -0.0906
    -0.0650   0.0220   0.0921   0.1786   0.3151   0.3685   0.4154   0.4373
     0.4578   0.4883   0.5200   0.5603   0.6030   0.6450   0.6860   0.7316
     0.8516   0.8658   0.9142   0.9232   0.9591   1.0006   1.0170   1.0582
     1.0719   1.1087   1.1418   1.1693   1.2024   1.2114   1.2441   1.3186
     1.3463   1.3879   1.4425   1.4941   1.5061   1.5530   1.5882   1.6166
     1.6603   1.6849   1.7046   1.7341   1.7720   1.7847   1.8005   1.8105
     1.8619   1.8941   1.9136   1.9358   1.9636   1.9903   2.0066   2.0117
     2.0297   2.0843   2.1076   2.1505   2.1923   2.2195   2.3127   2.3645

          k = 0.3750-0.3750-0.3750 (132612 PWs)   bands (ev):

   -18.6246 -18.5558 -18.4696 -18.4388 -18.4200 -18.3742 -18.3729 -18.3670
   -18.3603 -18.3557 -18.3042 -18.2936 -18.2904 -18.2852 -18.2775 -18.2598
   -18.2572 -18.2484 -18.2406 -18.2377 -18.2347 -18.2333 -18.2281 -18.2241
   -18.2240 -18.2188 -18.2104 -18.1978 -18.1895 -18.1836 -18.1678 -18.1649
   -18.1633 -18.1587 -18.1565 -18.1558 -18.1493 -18.1472 -18.1426 -18.1380
   -18.1361 -18.1343 -18.1310 -18.1008 -18.0873 -18.0839 -18.0742 -18.0568
    -9.5230  -9.3568  -9.2951  -9.2293  -9.1968  -9.1466  -9.0730  -9.0425
    -9.0076  -8.9767  -8.9160  -8.9003  -8.8778  -8.8616  -8.8323  -8.7632
    -8.7537  -8.7180  -8.6694  -8.6415  -8.5986  -8.5662  -8.5334  -8.4951
    -5.3937  -5.3870  -5.3668  -5.3317  -5.3126  -5.3011  -5.2423  -5.2281
    -5.2188  -5.2097  -5.2020  -5.1917  -5.1900  -5.1776  -5.1708  -5.0286
    -5.0157  -4.9985  -4.9671  -4.9561  -4.9400  -4.9288  -4.9223  -4.9108
    -4.1051  -3.9392  -3.8419  -3.7968  -3.6043  -3.5801  -3.5301  -3.3459
    -0.5104  -0.4297  -0.3431  -0.2722  -0.2257  -0.1706  -0.1288  -0.0926
    -0.0569   0.0656   0.1214   0.1947   0.2648   0.3319   0.3599   0.4146
     0.4705   0.5016   0.5238   0.5633   0.6037   0.6386   0.6739   0.7669
     0.8267   0.8637   0.8945   0.9384   0.9700   1.0218   1.0488   1.0540
     1.0890   1.1129   1.1348   1.1630   1.1899   1.2254   1.2434   1.2807
     1.3327   1.3940   1.4278   1.5093   1.5353   1.5471   1.5810   1.6241
     1.6681   1.6956   1.7094   1.7295   1.7463   1.7790   1.8082   1.8257
     1.8585   1.8902   1.9194   1.9275   1.9652   1.9766   1.9929   2.0158
     2.0487   2.0843   2.1000   2.1378   2.1943   2.2413   2.2862   2.3892

     highest occupied level (ev):     3.1944

!    total energy              =   -2256.28857993 Ry
     estimated scf accuracy    <          1.8E-11 Ry

     The total energy is the sum of the following terms:
     one-electron contribution =    -990.71725183 Ry
     hartree contribution      =     623.47651186 Ry
     xc contribution           =    -647.51348253 Ry
     ewald contribution        =   -1241.53435743 Ry

     convergence has been achieved in  16 iterations

     Forces acting on atoms (cartesian axes, Ry/au):

     atom    1 type  1   force =     0.00080480    0.00075807   -0.00674829
     atom    2 type  2   force =     0.01075338    0.02145013    0.00192695
     atom    3 type  3   force =    -0.01074843   -0.00219056   -0.01109398
     atom    4 type  3   force =    -0.00985687   -0.00727524    0.02166437
     atom    5 type  3   force =     0.00429315   -0.00640600   -0.00901297
     atom    6 type  1   force =     0.00147392    0.00141703   -0.00094899
     atom    7 type  2   force =    -0.00185693   -0.00395821    0.00613890
     atom    8 type  3   force =     0.00014213   -0.00302368    0.00304175
     atom    9 type  3   force =    -0.00030921   -0.00098765    0.00000410
     atom   10 type  3   force =     0.00284295    0.01019116    0.00339420
     atom   11 type  1   force =     0.00305180   -0.00067537   -0.00077888
     atom   12 type  2   force =     0.00238301   -0.02851172    0.01694438
     atom   13 type  3   force =     0.00206218    0.00262175   -0.00134500
     atom   14 type  3   force =     0.00661925    0.00132460    0.01071059
     atom   15 type  3   force =     0.00123794    0.00810810   -0.00031014
     atom   16 type  1   force =     0.00559509    0.00273940    0.00226542
     atom   17 type  2   force =    -0.00646828    0.00494595   -0.01289420
     atom   18 type  3   force =    -0.00171321    0.01057306    0.00855583
     atom   19 type  3   force =     0.00012753   -0.00141474   -0.00787196
     atom   20 type  3   force =     0.00835420   -0.00064894    0.00365401
     atom   21 type  1   force =    -0.00167847    0.00043757    0.00103658
     atom   22 type  2   force =    -0.01285235   -0.00301536    0.00196966
     atom   23 type  3   force =     0.03665939   -0.00045219   -0.00518975
     atom   24 type  3   force =    -0.00173586    0.00050570   -0.00478396
     atom   25 type  3   force =     0.00016682   -0.01182927    0.00254244
     atom   26 type  1   force =    -0.00281999    0.00210752   -0.00215249
     atom   27 type  2   force =    -0.00266729    0.01248388   -0.02715151
     atom   28 type  3   force =    -0.00653745    0.00290020    0.00794699
     atom   29 type  3   force =     0.00008442   -0.00018138    0.02414635
     atom   30 type  3   force =     0.00552556   -0.00982307   -0.00097488
     atom   31 type  1   force =    -0.00534931   -0.01019433   -0.00974154
     atom   32 type  2   force =     0.00412330    0.00806331    0.00208620
     atom   33 type  3   force =    -0.00947235    0.00528945   -0.01312288
     atom   34 type  3   force =    -0.00266893   -0.00277561   -0.00966416
     atom   35 type  3   force =    -0.00305382    0.01203389   -0.00247913
     atom   36 type  1   force =    -0.00356827   -0.00178586   -0.00196135
     atom   37 type  2   force =     0.00417631   -0.01453090   -0.00956136
     atom   38 type  3   force =    -0.01223690   -0.00163963    0.00008814
     atom   39 type  3   force =    -0.00429351    0.00186939    0.01756488
     atom   40 type  3   force =    -0.00058970    0.00149950    0.00210567

     Total force =     0.094729     Total SCF correction =     0.000021


     Computing stress (Cartesian axis) and pressure

          total   stress  (Ry/bohr**3)                   (kbar)     P=       -7.21
  -0.00005397  -0.00000160  -0.00000349           -7.94       -0.24       -0.51
  -0.00000160  -0.00004700   0.00000252           -0.24       -6.91        0.37
  -0.00000349   0.00000252  -0.00004610           -0.51        0.37       -6.78

 
     init_run     :     19.71s CPU     16.63s WALL (       1 calls)
     electrons    :    211.54s CPU    223.23s WALL (       1 calls)
     forces       :      8.98s CPU      3.98s WALL (       1 calls)
     stress       :     31.95s CPU     31.24s WALL (       1 calls)

     Called by init_run:
     wfcinit      :     11.85s CPU     13.55s WALL (       1 calls)
                                       13.55s GPU  (       1 calls)
     potinit      :      4.50s CPU      1.41s WALL (       1 calls)
     hinit0       :      2.78s CPU      0.99s WALL (       1 calls)

     Called by electrons:
     c_bands      :    125.22s CPU    177.93s WALL (      17 calls)
     sum_band     :     23.22s CPU     22.39s WALL (      17 calls)
                                       22.39s GPU  (      17 calls)
     v_of_rho     :     58.08s CPU     17.68s WALL (      17 calls)
     mix_rho      :      7.01s CPU      5.46s WALL (      17 calls)

     Called by c_bands:
     init_us_2    :      2.39s CPU      3.26s WALL (     296 calls)
                                        3.26s GPU  (     296 calls)
     cegterg      :     83.74s CPU    133.48s WALL (     136 calls)

     Called by *egterg:
     cdiaghg      :     14.20s CPU     26.90s WALL (     672 calls)
                                       26.86s GPU  (     672 calls)
     h_psi        :     56.96s CPU     76.64s WALL (     688 calls)
                                       76.18s GPU  (     688 calls)
     g_psi        :      0.00s CPU      0.37s WALL (     544 calls)
                                        0.36s GPU  (     544 calls)

     Called by h_psi:
     h_psi:calbec :      0.33s CPU     10.36s WALL (     688 calls)
                                       10.35s GPU  (     688 calls)
     vloc_psi     :     41.16s CPU     55.86s WALL (     688 calls)
                                       54.91s GPU  (     688 calls)
     add_vuspsi   :      0.36s CPU     10.34s WALL (     688 calls)
                                       10.33s GPU  (     688 calls)

     General routines
     calbec       :      0.33s CPU      0.40s WALL (     728 calls)
     fft          :     27.17s CPU      6.92s WALL (     195 calls)
                                        0.00s GPU  (       6 calls)
     ffts         :      2.79s CPU      0.72s WALL (      17 calls)
     fftw         :      0.68s CPU     64.99s WALL (   10870 calls)
                                       48.61s GPU  (   10870 calls)
 
     Parallel routines
 
     PWSCF        :   4m33.44s CPU   4m36.42s WALL

 
   This run was terminated on:  20:36:17  22Apr2021            

=------------------------------------------------------------------------------=
   JOB DONE.
=------------------------------------------------------------------------------=
