
     Program PWSCF v.6.7MaX starts on 22Apr2021 at 22:35:20 

     This program is part of the open-source Quantum ESPRESSO suite
     for quantum simulation of materials; please cite
         "P. Giannozzi et al., J. Phys.:Condens. Matter 21 395502 (2009);
         "P. Giannozzi et al., J. Phys.:Condens. Matter 29 465901 (2017);
         "P. Giannozzi et al., J. Chem. Phys. 152 154105 (2020);
          URL http://www.quantum-espresso.org", 
     in publications or presentations arising from this work. More details at
     http://www.quantum-espresso.org/quote

     Parallel version (MPI & OpenMP), running on      16 processor cores
     Number of MPI processes:                 4
     Threads/MPI process:                     4

     MPI processes distributed on     1 nodes
     K-points division:     npool     =       4
     Reading input from ESP_30.pwi
Warning: card &CELL ignored
Warning: card / ignored

     Current dimensions of program PWSCF are:
     Max number of different atomic species (ntypx) = 10
     Max number of k-points (npk) =  40000
     Max angular momentum in pseudopotentials (lmaxx) =  3
     Message from routine read_pp_mesh:
     mesh size missing, using the one in header
     Message from routine read_pp_mesh:
     mesh size missing, using the one in header
     Message from routine read_pp_mesh:
     mesh size missing, using the one in header

     Subspace diagonalization in iterative solution of the eigenvalue problem:
     a serial algorithm will be used

 
     G-vector sticks info
     --------------------
     sticks:   dense  smooth     PW     G-vecs:    dense   smooth      PW
     Sum       12589   12589   3289              1061107  1061107  140905
 
     Using Slab Decomposition
 


     bravais-lattice index     =            0
     lattice parameter (alat)  =      23.7585  a.u.
     unit-cell volume          =   13410.8736 (a.u.)^3
     number of atoms/cell      =           40
     number of atomic types    =            3
     number of electrons       =       352.00
     number of Kohn-Sham states=          176
     kinetic-energy cutoff     =      70.0000  Ry
     charge density cutoff     =     280.0000  Ry
     scf convergence threshold =      1.0E-10
     mixing beta               =       0.7000
     number of iterations used =            8  plain     mixing
     Exchange-correlation= PBESOL
                           (   1   4  10   8   0   0   0)

     GPU acceleration is ACTIVE.


     celldm(1)=  23.758500  celldm(2)=   0.000000  celldm(3)=   0.000000
     celldm(4)=   0.000000  celldm(5)=   0.000000  celldm(6)=   0.000000

     crystal axes: (cart. coord. in units of alat)
               a(1) = (   1.000000   0.000000   0.000000 )  
               a(2) = (   0.000000   1.000000   0.000000 )  
               a(3) = (   0.000000   0.000000   1.000000 )  

     reciprocal axes: (cart. coord. in units 2 pi/alat)
               b(1) = (  1.000000  0.000000  0.000000 )  
               b(2) = (  0.000000  1.000000  0.000000 )  
               b(3) = (  0.000000  0.000000  1.000000 )  


     PseudoPot. # 1 for Cs read from file:
     /m100/home/userexternal/lmonacel/espresso/pseudo/Cs-nc-pbesol.upf
     MD5 check sum: 9d2f2206a14dc5b3b3f3fbfae186bed4
     Pseudo is Norm-conserving + core correction, Zval =  9.0
     Generated using ONCVPSP code by D. R. Hamann
     Using radial grid of 2384 points,  8 beta functions with: 
                l(1) =   0
                l(2) =   0
                l(3) =   1
                l(4) =   1
                l(5) =   2
                l(6) =   2
                l(7) =   3
                l(8) =   3

     PseudoPot. # 2 for Sn read from file:
     /m100/home/userexternal/lmonacel/espresso/pseudo/Sn-nc-pbesol.upf
     MD5 check sum: c2995d571af40102bfea7461443d92cf
     Pseudo is Norm-conserving + core correction, Zval = 14.0
     Generated using ONCVPSP code by D. R. Hamann
     Using radial grid of 1628 points,  6 beta functions with: 
                l(1) =   0
                l(2) =   0
                l(3) =   1
                l(4) =   1
                l(5) =   2
                l(6) =   2

     PseudoPot. # 3 for I  read from file:
     /m100/home/userexternal/lmonacel/espresso/pseudo/I-nc-pbesol.upf
     MD5 check sum: 80ed5ceb2eb9c553cfb6760a299d9c5b
     Pseudo is Norm-conserving + core correction, Zval =  7.0
     Generated using ONCVPSP code by D. R. Hamann
     Using radial grid of 1182 points,  6 beta functions with: 
                l(1) =   0
                l(2) =   0
                l(3) =   1
                l(4) =   1
                l(5) =   2
                l(6) =   2

     atomic species   valence    mass     pseudopotential
        Cs             9.00   132.90545     Cs( 1.00)
        Sn            14.00   118.71000     Sn( 1.00)
        I              7.00   126.90447     I ( 1.00)

     No symmetry found



   Cartesian axes

     site n.     atom                  positions (alat units)
         1           Cs  tau(   1) = (   0.2422793   0.2178562   0.2690487  )
         2           Sn  tau(   2) = (   0.0026876   0.0048271  -0.0026934  )
         3           I   tau(   3) = (   0.2322775   0.0134277   0.0160890  )
         4           I   tau(   4) = (   0.0029113   0.0054471   0.2539357  )
         5           I   tau(   5) = (  -0.0261028   0.2512227  -0.0026260  )
         6           Cs  tau(   6) = (   0.2387419   0.2199935   0.7535659  )
         7           Sn  tau(   7) = (  -0.0012343   0.0035783   0.4932394  )
         8           I   tau(   8) = (   0.2477254   0.0022973   0.4979965  )
         9           I   tau(   9) = (  -0.0047323  -0.0204776   0.7466443  )
        10           I   tau(  10) = (   0.0143329   0.2706833   0.4855930  )
        11           Cs  tau(  11) = (   0.2495644   0.7550326   0.2336498  )
        12           Sn  tau(  12) = (  -0.0154798   0.5093804   0.0142902  )
        13           I   tau(  13) = (   0.2383592   0.5012744   0.0218003  )
        14           I   tau(  14) = (   0.0088947   0.4897557   0.2624148  )
        15           I   tau(  15) = (  -0.0048463   0.7638360  -0.0009357  )
        16           Cs  tau(  16) = (   0.2845555   0.7573297   0.7500732  )
        17           Sn  tau(  17) = (   0.0134832   0.5149366   0.5136933  )
        18           I   tau(  18) = (   0.2727755   0.5154725   0.5217991  )
        19           I   tau(  19) = (   0.0239952   0.4993963   0.7606373  )
        20           I   tau(  20) = (  -0.0047670   0.7635144   0.4975702  )
        21           Cs  tau(  21) = (   0.7396207   0.2473320   0.2217555  )
        22           Sn  tau(  22) = (   0.4997829   0.0087130  -0.0055526  )
        23           I   tau(  23) = (   0.7365055  -0.0250835   0.0005669  )
        24           I   tau(  24) = (   0.5177921   0.0159377   0.2413778  )
        25           I   tau(  25) = (   0.4973176   0.2377944  -0.0229469  )
        26           Cs  tau(  26) = (   0.7532332   0.2433505   0.7386037  )
        27           Sn  tau(  27) = (   0.4993145  -0.0026166   0.4931027  )
        28           I   tau(  28) = (   0.7471770  -0.0036344   0.4636558  )
        29           I   tau(  29) = (   0.5023752  -0.0028329   0.7529961  )
        30           I   tau(  30) = (   0.5063902   0.2574505   0.5152484  )
        31           Cs  tau(  31) = (   0.7676329   0.7295197   0.2315396  )
        32           Sn  tau(  32) = (   0.4901003   0.5088489   0.0026622  )
        33           I   tau(  33) = (   0.7369662   0.5126988   0.0168870  )
        34           I   tau(  34) = (   0.4920643   0.4729507   0.2598293  )
        35           I   tau(  35) = (   0.4637482   0.7524942   0.0170087  )
        36           Cs  tau(  36) = (   0.7362916   0.7834952   0.7516123  )
        37           Sn  tau(  37) = (   0.5140725   0.4887135   0.4958666  )
        38           I   tau(  38) = (   0.7608354   0.4979300   0.5016350  )
        39           I   tau(  39) = (   0.5211085   0.4805208   0.7497203  )
        40           I   tau(  40) = (   0.5018628   0.7621618   0.4913153  )

     number of k points=    32
                       cart. coord. in units 2pi/alat
        k(    1) = (   0.1250000   0.1250000   0.1250000), wk =   0.0625000
        k(    2) = (   0.1250000   0.1250000   0.3750000), wk =   0.0625000
        k(    3) = (   0.1250000   0.3750000   0.3750000), wk =   0.0625000
        k(    4) = (   0.3750000   0.3750000   0.3750000), wk =   0.0625000
        k(    5) = (  -0.1250000  -0.1250000   0.1250000), wk =   0.0625000
        k(    6) = (  -0.1250000   0.1250000  -0.1250000), wk =   0.0625000
        k(    7) = (   0.1250000  -0.1250000  -0.1250000), wk =   0.0625000
        k(    8) = (  -0.1250000  -0.1250000   0.3750000), wk =   0.0625000
        k(    9) = (  -0.1250000   0.1250000  -0.3750000), wk =   0.0625000
        k(   10) = (   0.1250000  -0.1250000  -0.3750000), wk =   0.0625000
        k(   11) = (   0.3750000  -0.1250000   0.1250000), wk =   0.0625000
        k(   12) = (  -0.3750000  -0.1250000  -0.1250000), wk =   0.0625000
        k(   13) = (   0.3750000   0.1250000  -0.1250000), wk =   0.0625000
        k(   14) = (  -0.3750000   0.1250000   0.1250000), wk =   0.0625000
        k(   15) = (  -0.1250000   0.3750000   0.1250000), wk =   0.0625000
        k(   16) = (  -0.1250000  -0.3750000  -0.1250000), wk =   0.0625000
        k(   17) = (   0.1250000   0.3750000  -0.1250000), wk =   0.0625000
        k(   18) = (   0.1250000  -0.3750000   0.1250000), wk =   0.0625000
        k(   19) = (  -0.1250000  -0.3750000   0.3750000), wk =   0.0625000
        k(   20) = (  -0.1250000   0.3750000  -0.3750000), wk =   0.0625000
        k(   21) = (   0.1250000  -0.3750000  -0.3750000), wk =   0.0625000
        k(   22) = (   0.3750000   0.1250000  -0.3750000), wk =   0.0625000
        k(   23) = (  -0.3750000  -0.1250000  -0.3750000), wk =   0.0625000
        k(   24) = (   0.3750000  -0.1250000   0.3750000), wk =   0.0625000
        k(   25) = (  -0.3750000   0.1250000   0.3750000), wk =   0.0625000
        k(   26) = (   0.3750000  -0.3750000   0.1250000), wk =   0.0625000
        k(   27) = (  -0.3750000  -0.3750000  -0.1250000), wk =   0.0625000
        k(   28) = (   0.3750000   0.3750000  -0.1250000), wk =   0.0625000
        k(   29) = (  -0.3750000   0.3750000   0.1250000), wk =   0.0625000
        k(   30) = (  -0.3750000  -0.3750000   0.3750000), wk =   0.0625000
        k(   31) = (  -0.3750000   0.3750000  -0.3750000), wk =   0.0625000
        k(   32) = (   0.3750000  -0.3750000  -0.3750000), wk =   0.0625000

     Dense  grid:  1061107 G-vectors     FFT dimensions: ( 128, 128, 128)

     Estimated max dynamical RAM per process >       6.82 GB

     Estimated total dynamical RAM >      27.27 GB

     Initial potential from superposition of free atoms

     starting charge  351.69472, renormalised to  352.00000
     Starting wfcs are  208 randomized atomic wfcs

     total cpu time spent up to now is       17.6 secs

     Self-consistent Calculation

     iteration #  1     ecut=    70.00 Ry     beta= 0.70
     Davidson diagonalization with overlap
     ethr =  1.00E-02,  avg # of iterations =  2.0

     Threshold (ethr) on eigenvalues was too large:
     Diagonalizing with lowered threshold

     Davidson diagonalization with overlap
     ethr =  2.05E-04,  avg # of iterations =  4.0

     total cpu time spent up to now is       38.5 secs

     total energy              =   -2256.07380086 Ry
     estimated scf accuracy    <       0.61914018 Ry

     iteration #  2     ecut=    70.00 Ry     beta= 0.70
     Davidson diagonalization with overlap
     ethr =  1.76E-04,  avg # of iterations =  3.3

     total cpu time spent up to now is       51.1 secs

     total energy              =   -2256.27066044 Ry
     estimated scf accuracy    <       0.24010330 Ry

     iteration #  3     ecut=    70.00 Ry     beta= 0.70
     Davidson diagonalization with overlap
     ethr =  6.82E-05,  avg # of iterations =  2.7

     total cpu time spent up to now is       62.9 secs

     total energy              =   -2256.31570292 Ry
     estimated scf accuracy    <       0.01324872 Ry

     iteration #  4     ecut=    70.00 Ry     beta= 0.70
     Davidson diagonalization with overlap
     ethr =  3.76E-06,  avg # of iterations =  4.6

     total cpu time spent up to now is       76.8 secs

     total energy              =   -2256.32087696 Ry
     estimated scf accuracy    <       0.00549149 Ry

     iteration #  5     ecut=    70.00 Ry     beta= 0.70
     Davidson diagonalization with overlap
     ethr =  1.56E-06,  avg # of iterations =  3.8

     total cpu time spent up to now is       88.9 secs

     total energy              =   -2256.32185956 Ry
     estimated scf accuracy    <       0.00080123 Ry

     iteration #  6     ecut=    70.00 Ry     beta= 0.70
     Davidson diagonalization with overlap
     ethr =  2.28E-07,  avg # of iterations =  4.0

     total cpu time spent up to now is      101.3 secs

     total energy              =   -2256.32200022 Ry
     estimated scf accuracy    <       0.00015897 Ry

     iteration #  7     ecut=    70.00 Ry     beta= 0.70
     Davidson diagonalization with overlap
     ethr =  4.52E-08,  avg # of iterations =  4.4

     total cpu time spent up to now is      114.5 secs

     total energy              =   -2256.32204717 Ry
     estimated scf accuracy    <       0.00001697 Ry

     iteration #  8     ecut=    70.00 Ry     beta= 0.70
     Davidson diagonalization with overlap
     ethr =  4.82E-09,  avg # of iterations =  4.6

     total cpu time spent up to now is      128.8 secs

     total energy              =   -2256.32205538 Ry
     estimated scf accuracy    <       0.00000273 Ry

     iteration #  9     ecut=    70.00 Ry     beta= 0.70
     Davidson diagonalization with overlap
     ethr =  7.75E-10,  avg # of iterations =  4.8

     total cpu time spent up to now is      142.8 secs

     total energy              =   -2256.32205633 Ry
     estimated scf accuracy    <       0.00000062 Ry

     iteration # 10     ecut=    70.00 Ry     beta= 0.70
     Davidson diagonalization with overlap
     ethr =  1.76E-10,  avg # of iterations =  4.1

     total cpu time spent up to now is      156.8 secs

     total energy              =   -2256.32205655 Ry
     estimated scf accuracy    <       0.00000009 Ry

     iteration # 11     ecut=    70.00 Ry     beta= 0.70
     Davidson diagonalization with overlap
     ethr =  2.57E-11,  avg # of iterations =  5.2

     total cpu time spent up to now is      172.7 secs

     total energy              =   -2256.32205661 Ry
     estimated scf accuracy    <       0.00000003 Ry

     iteration # 12     ecut=    70.00 Ry     beta= 0.70
     Davidson diagonalization with overlap
     ethr =  8.74E-12,  avg # of iterations =  3.6

     total cpu time spent up to now is      185.9 secs

     total energy              =   -2256.32205662 Ry
     estimated scf accuracy    <          4.9E-09 Ry

     iteration # 13     ecut=    70.00 Ry     beta= 0.70
     Davidson diagonalization with overlap
     ethr =  1.40E-12,  avg # of iterations =  4.5

     total cpu time spent up to now is      200.4 secs

     total energy              =   -2256.32205662 Ry
     estimated scf accuracy    <          3.9E-10 Ry

     iteration # 14     ecut=    70.00 Ry     beta= 0.70
     Davidson diagonalization with overlap
     ethr =  1.12E-13,  avg # of iterations =  7.4

     total cpu time spent up to now is      220.1 secs

     total energy              =   -2256.32205662 Ry
     estimated scf accuracy    <          1.1E-10 Ry

     iteration # 15     ecut=    70.00 Ry     beta= 0.70
     Davidson diagonalization with overlap
     ethr =  1.00E-13,  avg # of iterations =  2.0

     total cpu time spent up to now is      231.2 secs

     End of self-consistent calculation

          k = 0.1250 0.1250 0.1250 (132670 PWs)   bands (ev):

   -18.4875 -18.4806 -18.4767 -18.4601 -18.3987 -18.3835 -18.3404 -18.3304
   -18.3239 -18.3163 -18.3146 -18.3069 -18.3028 -18.2920 -18.2816 -18.2773
   -18.2753 -18.2690 -18.2511 -18.2468 -18.2419 -18.2400 -18.2313 -18.2280
   -18.2273 -18.2253 -18.2155 -18.2141 -18.2097 -18.2020 -18.1938 -18.1916
   -18.1899 -18.1897 -18.1850 -18.1729 -18.1659 -18.1626 -18.1176 -18.1122
   -18.1056 -18.1019 -18.0991 -18.0256 -18.0121 -18.0008 -17.9946 -17.9919
    -9.4533  -9.3004  -9.2369  -9.2150  -9.1231  -9.0667  -9.0531  -9.0350
    -8.9978  -8.9575  -8.9444  -8.9309  -8.8939  -8.8624  -8.8459  -8.7977
    -8.7829  -8.7084  -8.6933  -8.6636  -8.6396  -8.6066  -8.5359  -8.4898
    -5.2591  -5.2551  -5.2453  -5.2423  -5.2398  -5.2347  -5.2337  -5.2310
    -5.2256  -5.2215  -5.2174  -5.2131  -5.1684  -5.1641  -5.1594  -5.1579
    -5.1531  -5.1404  -5.1103  -5.1049  -5.1010  -5.0819  -5.0769  -5.0681
    -4.4598  -3.9492  -3.9150  -3.8838  -3.3813  -3.3351  -3.3054  -2.6962
    -0.7687  -0.7522  -0.6861  -0.6298  -0.5745  -0.5513  -0.5084  -0.4772
    -0.4365  -0.3592  -0.3011  -0.2459   0.4284   0.4619   0.4991   0.6473
     0.6852   0.6990   0.7203   0.7580   0.7726   0.9004   0.9454   0.9929
     1.0087   1.0512   1.0871   1.1117   1.1341   1.1535   1.1852   1.1993
     1.2247   1.2744   1.2973   1.3096   1.3337   1.3529   1.3709   1.3793
     1.4122   1.4306   1.4508   1.4651   1.5014   1.5195   1.5375   1.5489
     1.5841   1.6075   1.6185   1.6502   1.6613   1.6808   1.7236   1.7624
     1.8069   1.8126   1.8973   1.9568   1.9851   2.0702   2.0946   2.1608
     2.1937   2.2020   2.2807   2.3438   2.6586   2.7398   2.8421   3.1877

          k = 0.1250 0.1250 0.3750 (132608 PWs)   bands (ev):

   -18.4875 -18.4806 -18.4767 -18.4601 -18.3987 -18.3835 -18.3404 -18.3304
   -18.3239 -18.3163 -18.3146 -18.3069 -18.3028 -18.2920 -18.2816 -18.2773
   -18.2753 -18.2690 -18.2511 -18.2468 -18.2419 -18.2400 -18.2313 -18.2280
   -18.2273 -18.2253 -18.2155 -18.2141 -18.2097 -18.2020 -18.1938 -18.1916
   -18.1899 -18.1897 -18.1850 -18.1729 -18.1659 -18.1626 -18.1176 -18.1122
   -18.1056 -18.1019 -18.0991 -18.0256 -18.0121 -18.0008 -17.9946 -17.9919
    -9.4379  -9.3026  -9.2554  -9.2059  -9.1405  -9.0836  -9.0662  -9.0452
    -8.9749  -8.9463  -8.9314  -8.9154  -8.8910  -8.8583  -8.8476  -8.8163
    -8.7831  -8.7159  -8.6986  -8.6495  -8.6114  -8.6060  -8.5523  -8.4989
    -5.2587  -5.2548  -5.2452  -5.2419  -5.2398  -5.2347  -5.2336  -5.2309
    -5.2255  -5.2216  -5.2174  -5.2131  -5.1686  -5.1643  -5.1597  -5.1580
    -5.1532  -5.1406  -5.1104  -5.1049  -5.1012  -5.0819  -5.0770  -5.0682
    -4.3308  -4.0915  -3.8136  -3.7649  -3.5672  -3.4996  -3.1971  -2.9263
    -0.7324  -0.6856  -0.6198  -0.5697  -0.5391  -0.5057  -0.4356  -0.3277
    -0.2032  -0.1370   0.0052   0.1208   0.3756   0.4570   0.4739   0.5436
     0.5848   0.6181   0.6383   0.6725   0.6825   0.7263   0.8024   0.8289
     0.8861   0.9343   0.9899   1.0168   1.0793   1.1123   1.1444   1.1917
     1.2107   1.2314   1.2652   1.2884   1.3157   1.3596   1.3710   1.4092
     1.4177   1.4399   1.4799   1.4962   1.5290   1.5429   1.5542   1.5715
     1.5973   1.6028   1.6425   1.6869   1.7003   1.7195   1.7501   1.7940
     1.8089   1.8547   1.8796   1.9179   1.9615   1.9696   2.0112   2.0629
     2.1629   2.1910   2.2478   2.2951   2.4269   2.4960   2.7788   2.9612

          k = 0.1250 0.3750 0.3750 (132616 PWs)   bands (ev):

   -18.4875 -18.4806 -18.4767 -18.4601 -18.3987 -18.3835 -18.3404 -18.3304
   -18.3239 -18.3163 -18.3146 -18.3069 -18.3028 -18.2920 -18.2816 -18.2773
   -18.2753 -18.2690 -18.2511 -18.2468 -18.2419 -18.2400 -18.2313 -18.2280
   -18.2273 -18.2253 -18.2155 -18.2141 -18.2097 -18.2020 -18.1938 -18.1916
   -18.1899 -18.1897 -18.1850 -18.1729 -18.1659 -18.1626 -18.1176 -18.1122
   -18.1056 -18.1019 -18.0991 -18.0256 -18.0121 -18.0008 -17.9946 -17.9919
    -9.4288  -9.2963  -9.2488  -9.2234  -9.1512  -9.0919  -9.0736  -9.0386
    -8.9846  -8.9620  -8.9376  -8.9117  -8.8842  -8.8409  -8.8275  -8.7973
    -8.7860  -8.7236  -8.6932  -8.6522  -8.6161  -8.6074  -8.5569  -8.5004
    -5.2576  -5.2538  -5.2459  -5.2421  -5.2395  -5.2354  -5.2340  -5.2310
    -5.2254  -5.2230  -5.2173  -5.2129  -5.1684  -5.1639  -5.1594  -5.1579
    -5.1528  -5.1406  -5.1108  -5.1049  -5.1014  -5.0819  -5.0769  -5.0683
    -4.2057  -3.9801  -3.9499  -3.7316  -3.6463  -3.4123  -3.3801  -3.1337
    -0.7208  -0.6063  -0.5875  -0.3835  -0.3390  -0.2447  -0.2171  -0.1485
    -0.0901   0.0268   0.0465   0.1283   0.3225   0.4075   0.4506   0.5070
     0.5362   0.5696   0.5888   0.6096   0.6401   0.6706   0.6937   0.7413
     0.8286   0.8705   0.9138   0.9792   1.0098   1.0494   1.0782   1.1139
     1.1477   1.1661   1.2194   1.2618   1.2833   1.3090   1.3311   1.3800
     1.4112   1.4411   1.4710   1.5118   1.5278   1.5610   1.5946   1.6082
     1.6354   1.6614   1.7010   1.7117   1.7215   1.7587   1.7700   1.7854
     1.8218   1.8443   1.8726   1.9041   1.9275   1.9490   1.9940   2.0537
     2.0686   2.1056   2.1288   2.2157   2.2650   2.4134   2.5161   2.6906

          k = 0.3750 0.3750 0.3750 (132612 PWs)   bands (ev):

   -18.4875 -18.4806 -18.4767 -18.4601 -18.3987 -18.3835 -18.3404 -18.3304
   -18.3239 -18.3163 -18.3146 -18.3069 -18.3028 -18.2920 -18.2816 -18.2773
   -18.2753 -18.2690 -18.2511 -18.2468 -18.2419 -18.2400 -18.2313 -18.2280
   -18.2273 -18.2253 -18.2155 -18.2141 -18.2097 -18.2020 -18.1938 -18.1916
   -18.1899 -18.1897 -18.1850 -18.1729 -18.1659 -18.1626 -18.1176 -18.1122
   -18.1056 -18.1019 -18.0991 -18.0256 -18.0121 -18.0008 -17.9946 -17.9919
    -9.4068  -9.3226  -9.2363  -9.2198  -9.1709  -9.1141  -9.0816  -9.0220
    -8.9834  -8.9594  -8.9293  -8.9085  -8.8747  -8.8424  -8.8235  -8.7973
    -8.7890  -8.7234  -8.7020  -8.6544  -8.6120  -8.5887  -8.5567  -8.5153
    -5.2573  -5.2547  -5.2459  -5.2418  -5.2395  -5.2377  -5.2334  -5.2314
    -5.2252  -5.2218  -5.2167  -5.2128  -5.1690  -5.1636  -5.1596  -5.1567
    -5.1533  -5.1409  -5.1107  -5.1045  -5.1010  -5.0819  -5.0772  -5.0680
    -4.0740  -3.8992  -3.8307  -3.7817  -3.6584  -3.5872  -3.5138  -3.3329
    -0.4261  -0.3832  -0.2968  -0.2666  -0.2273  -0.1711  -0.1518  -0.0796
    -0.0377   0.0217   0.0828   0.2144   0.2765   0.3469   0.3591   0.4368
     0.4726   0.5346   0.5622   0.5694   0.5989   0.6180   0.6752   0.6871
     0.8540   0.8770   0.9145   0.9302   0.9888   0.9993   1.0206   1.0707
     1.1005   1.1134   1.1517   1.1798   1.1973   1.2391   1.2926   1.3334
     1.4231   1.4508   1.4810   1.4979   1.5497   1.5721   1.5949   1.6244
     1.6396   1.6544   1.6989   1.7248   1.7446   1.7682   1.8099   1.8224
     1.8290   1.8508   1.8695   1.8986   1.9196   1.9579   1.9868   2.0048
     2.0381   2.0630   2.0810   2.1158   2.1478   2.2063   2.2462   2.3238

          k =-0.1250-0.1250 0.1250 (132670 PWs)   bands (ev):

   -18.4875 -18.4806 -18.4767 -18.4601 -18.3987 -18.3835 -18.3404 -18.3304
   -18.3239 -18.3163 -18.3146 -18.3069 -18.3028 -18.2920 -18.2816 -18.2773
   -18.2753 -18.2690 -18.2511 -18.2468 -18.2419 -18.2400 -18.2313 -18.2280
   -18.2273 -18.2253 -18.2155 -18.2141 -18.2097 -18.2020 -18.1938 -18.1916
   -18.1899 -18.1897 -18.1850 -18.1729 -18.1659 -18.1626 -18.1176 -18.1122
   -18.1056 -18.1019 -18.0991 -18.0256 -18.0121 -18.0008 -17.9946 -17.9919
    -9.4531  -9.3031  -9.2337  -9.2134  -9.1249  -9.0689  -9.0593  -9.0307
    -8.9887  -8.9621  -8.9444  -8.9294  -8.8943  -8.8689  -8.8441  -8.7903
    -8.7860  -8.7113  -8.6912  -8.6677  -8.6349  -8.6074  -8.5367  -8.4895
    -5.2591  -5.2549  -5.2455  -5.2423  -5.2399  -5.2348  -5.2336  -5.2312
    -5.2258  -5.2215  -5.2174  -5.2130  -5.1686  -5.1641  -5.1594  -5.1579
    -5.1530  -5.1405  -5.1102  -5.1049  -5.1010  -5.0819  -5.0769  -5.0681
    -4.4593  -3.9471  -3.9216  -3.8805  -3.3815  -3.3342  -3.3054  -2.6960
    -0.7826  -0.7277  -0.7068  -0.6092  -0.5556  -0.5543  -0.5320  -0.5001
    -0.4314  -0.3643  -0.3023  -0.2199   0.4333   0.4623   0.4959   0.6493
     0.6794   0.7112   0.7152   0.7420   0.7779   0.9208   0.9506   0.9699
     0.9915   1.0548   1.0615   1.1152   1.1400   1.1756   1.1889   1.2145
     1.2311   1.2598   1.2772   1.3008   1.3332   1.3613   1.3732   1.3969
     1.4231   1.4295   1.4503   1.4638   1.4912   1.5250   1.5321   1.5626
     1.5770   1.5948   1.6274   1.6453   1.6605   1.6954   1.7080   1.7670
     1.7977   1.8103   1.9094   1.9538   1.9875   2.0630   2.1128   2.1498
     2.1918   2.2062   2.2880   2.3168   2.6498   2.7603   2.8515   3.1912

          k =-0.1250 0.1250-0.1250 (132670 PWs)   bands (ev):

   -18.4875 -18.4806 -18.4767 -18.4601 -18.3987 -18.3835 -18.3404 -18.3304
   -18.3239 -18.3163 -18.3146 -18.3069 -18.3028 -18.2920 -18.2816 -18.2773
   -18.2753 -18.2690 -18.2511 -18.2468 -18.2419 -18.2400 -18.2313 -18.2280
   -18.2273 -18.2253 -18.2155 -18.2141 -18.2097 -18.2020 -18.1938 -18.1916
   -18.1899 -18.1897 -18.1850 -18.1729 -18.1659 -18.1626 -18.1176 -18.1122
   -18.1056 -18.1019 -18.0991 -18.0256 -18.0121 -18.0008 -17.9946 -17.9919
    -9.4535  -9.2978  -9.2391  -9.2183  -9.1182  -9.0624  -9.0565  -9.0365
    -9.0011  -8.9640  -8.9339  -8.9188  -8.9099  -8.8671  -8.8419  -8.7911
    -8.7841  -8.7122  -8.6918  -8.6630  -8.6413  -8.6058  -8.5359  -8.4897
    -5.2585  -5.2556  -5.2453  -5.2425  -5.2398  -5.2354  -5.2335  -5.2305
    -5.2255  -5.2220  -5.2171  -5.2132  -5.1685  -5.1641  -5.1593  -5.1579
    -5.1531  -5.1405  -5.1102  -5.1050  -5.1009  -5.0819  -5.0768  -5.0681
    -4.4597  -3.9315  -3.9270  -3.8920  -3.3621  -3.3326  -3.3264  -2.6936
    -0.7910  -0.7473  -0.6807  -0.6142  -0.5810  -0.5453  -0.5236  -0.4904
    -0.4282  -0.3408  -0.2998  -0.2427   0.4291   0.4609   0.4975   0.6423
     0.6836   0.6915   0.7346   0.7459   0.7773   0.9016   0.9442   0.9955
     1.0039   1.0318   1.0883   1.1055   1.1357   1.1895   1.1962   1.2163
     1.2395   1.2679   1.2773   1.3106   1.3261   1.3358   1.3699   1.3889
     1.4054   1.4277   1.4506   1.4682   1.4906   1.4981   1.5420   1.5580
     1.5899   1.6115   1.6204   1.6367   1.6733   1.6882   1.7140   1.7750
     1.7944   1.8188   1.8995   1.9652   1.9872   2.0565   2.1109   2.1480
     2.1887   2.1979   2.2748   2.3368   2.6592   2.7576   2.8462   3.2044

          k = 0.1250-0.1250-0.1250 (132670 PWs)   bands (ev):

   -18.4875 -18.4806 -18.4767 -18.4601 -18.3987 -18.3835 -18.3404 -18.3304
   -18.3239 -18.3163 -18.3146 -18.3069 -18.3028 -18.2920 -18.2816 -18.2773
   -18.2753 -18.2690 -18.2511 -18.2468 -18.2419 -18.2400 -18.2313 -18.2280
   -18.2273 -18.2253 -18.2155 -18.2141 -18.2097 -18.2020 -18.1938 -18.1916
   -18.1899 -18.1897 -18.1850 -18.1729 -18.1659 -18.1626 -18.1176 -18.1122
   -18.1056 -18.1019 -18.0991 -18.0256 -18.0121 -18.0008 -17.9946 -17.9919
    -9.4534  -9.3007  -9.2312  -9.2201  -9.1233  -9.0645  -9.0594  -9.0337
    -8.9940  -8.9624  -8.9364  -8.9265  -8.9081  -8.8581  -8.8422  -8.7994
    -8.7841  -8.7067  -8.6930  -8.6675  -8.6375  -8.6063  -8.5361  -8.4897
    -5.2585  -5.2555  -5.2453  -5.2425  -5.2397  -5.2355  -5.2335  -5.2305
    -5.2256  -5.2220  -5.2170  -5.2131  -5.1686  -5.1639  -5.1595  -5.1580
    -5.1532  -5.1404  -5.1102  -5.1050  -5.1009  -5.0819  -5.0768  -5.0682
    -4.4599  -3.9351  -3.9217  -3.8932  -3.3636  -3.3313  -3.3261  -2.6946
    -0.7994  -0.7453  -0.6630  -0.6183  -0.5694  -0.5506  -0.5290  -0.4897
    -0.4175  -0.3525  -0.3117  -0.2411   0.4320   0.4616   0.4972   0.6429
     0.6862   0.6988   0.7245   0.7508   0.7645   0.9235   0.9482   0.9678
     1.0059   1.0430   1.0714   1.1082   1.1309   1.1765   1.1949   1.2170
     1.2227   1.2502   1.3037   1.3276   1.3368   1.3460   1.3778   1.3957
     1.4008   1.4299   1.4585   1.4687   1.4920   1.5047   1.5371   1.5641
     1.5911   1.6073   1.6158   1.6411   1.6631   1.6737   1.7197   1.7546
     1.7961   1.8143   1.9064   1.9451   1.9913   2.0712   2.1169   2.1584
     2.1819   2.2047   2.2971   2.3272   2.6566   2.7360   2.8510   3.1898

          k =-0.1250-0.1250 0.3750 (132608 PWs)   bands (ev):

   -18.4875 -18.4806 -18.4767 -18.4601 -18.3987 -18.3835 -18.3404 -18.3304
   -18.3239 -18.3163 -18.3146 -18.3069 -18.3028 -18.2920 -18.2816 -18.2773
   -18.2753 -18.2690 -18.2511 -18.2468 -18.2419 -18.2400 -18.2313 -18.2280
   -18.2273 -18.2253 -18.2155 -18.2141 -18.2097 -18.2020 -18.1938 -18.1916
   -18.1899 -18.1897 -18.1850 -18.1729 -18.1659 -18.1626 -18.1176 -18.1122
   -18.1056 -18.1019 -18.0991 -18.0256 -18.0121 -18.0008 -17.9946 -17.9919
    -9.4375  -9.3067  -9.2503  -9.2044  -9.1436  -9.0867  -9.0649  -9.0443
    -8.9714  -8.9494  -8.9303  -8.9088  -8.8940  -8.8699  -8.8450  -8.8098
    -8.7836  -8.7178  -8.6969  -8.6528  -8.6098  -8.6038  -8.5542  -8.4986
    -5.2587  -5.2546  -5.2453  -5.2419  -5.2398  -5.2347  -5.2335  -5.2310
    -5.2256  -5.2216  -5.2173  -5.2130  -5.1688  -5.1643  -5.1596  -5.1580
    -5.1531  -5.1408  -5.1104  -5.1050  -5.1012  -5.0818  -5.0771  -5.0682
    -4.3296  -4.0931  -3.8180  -3.7598  -3.5692  -3.4984  -3.1965  -2.9262
    -0.7385  -0.6887  -0.6161  -0.5492  -0.5471  -0.5058  -0.4332  -0.3397
    -0.2205  -0.1395   0.0153   0.1474   0.3785   0.4678   0.4923   0.5241
     0.5645   0.6232   0.6462   0.6670   0.6750   0.7274   0.7766   0.8368
     0.8776   0.9446   0.9828   1.0107   1.0801   1.1103   1.1483   1.2004
     1.2237   1.2292   1.2613   1.2913   1.3245   1.3557   1.3696   1.4071
     1.4313   1.4490   1.4695   1.4947   1.5131   1.5352   1.5576   1.5800
     1.5994   1.6121   1.6365   1.6789   1.7054   1.7289   1.7495   1.7836
     1.8154   1.8336   1.8823   1.9142   1.9652   1.9854   2.0079   2.0730
     2.1456   2.1899   2.2535   2.2778   2.4303   2.5065   2.7921   2.9564

          k =-0.1250 0.1250-0.3750 (132608 PWs)   bands (ev):

   -18.4875 -18.4806 -18.4767 -18.4601 -18.3987 -18.3835 -18.3404 -18.3304
   -18.3239 -18.3163 -18.3146 -18.3069 -18.3028 -18.2920 -18.2816 -18.2773
   -18.2753 -18.2690 -18.2511 -18.2468 -18.2419 -18.2399 -18.2313 -18.2280
   -18.2273 -18.2253 -18.2155 -18.2141 -18.2097 -18.2020 -18.1938 -18.1916
   -18.1899 -18.1897 -18.1850 -18.1729 -18.1659 -18.1626 -18.1176 -18.1122
   -18.1056 -18.1019 -18.0991 -18.0256 -18.0121 -18.0008 -17.9946 -17.9919
    -9.4379  -9.3022  -9.2532  -9.2109  -9.1364  -9.0842  -9.0671  -9.0468
    -8.9748  -8.9477  -8.9252  -8.9107  -8.8879  -8.8796  -8.8437  -8.8092
    -8.7820  -8.7169  -8.6993  -8.6506  -8.6112  -8.6050  -8.5530  -8.4987
    -5.2582  -5.2552  -5.2452  -5.2421  -5.2398  -5.2353  -5.2334  -5.2304
    -5.2254  -5.2221  -5.2170  -5.2132  -5.1687  -5.1643  -5.1595  -5.1580
    -5.1531  -5.1408  -5.1104  -5.1051  -5.1011  -5.0819  -5.0770  -5.0682
    -4.3301  -4.0931  -3.7982  -3.7822  -3.5517  -3.5146  -3.1962  -2.9243
    -0.7645  -0.6535  -0.6208  -0.5596  -0.5433  -0.5126  -0.4317  -0.3321
    -0.2075  -0.1451   0.0132   0.1411   0.3740   0.4520   0.4774   0.5351
     0.5899   0.6162   0.6411   0.6587   0.6944   0.7449   0.7742   0.8398
     0.8792   0.9401   0.9738   1.0198   1.0852   1.1266   1.1412   1.1737
     1.1842   1.2437   1.2818   1.3067   1.3146   1.3407   1.3700   1.4017
     1.4330   1.4593   1.4801   1.4983   1.5157   1.5224   1.5478   1.5686
     1.5930   1.6222   1.6480   1.6671   1.6951   1.7406   1.7568   1.7838
     1.8272   1.8335   1.8891   1.9234   1.9592   1.9797   2.0053   2.0557
     2.1680   2.1907   2.2391   2.2623   2.4497   2.5125   2.7836   2.9629

          k = 0.1250-0.1250-0.3750 (132608 PWs)   bands (ev):

   -18.4875 -18.4806 -18.4767 -18.4601 -18.3987 -18.3835 -18.3404 -18.3304
   -18.3239 -18.3163 -18.3146 -18.3069 -18.3028 -18.2920 -18.2816 -18.2773
   -18.2753 -18.2690 -18.2511 -18.2468 -18.2419 -18.2400 -18.2313 -18.2280
   -18.2273 -18.2253 -18.2155 -18.2141 -18.2097 -18.2020 -18.1938 -18.1916
   -18.1899 -18.1897 -18.1850 -18.1729 -18.1659 -18.1626 -18.1176 -18.1122
   -18.1056 -18.1019 -18.0991 -18.0256 -18.0121 -18.0008 -17.9946 -17.9919
    -9.4378  -9.3057  -9.2473  -9.2090  -9.1439  -9.0810  -9.0693  -9.0469
    -8.9714  -8.9406  -8.9273  -8.9188  -8.9000  -8.8572  -8.8436  -8.8179
    -8.7846  -8.7150  -8.6969  -8.6534  -8.6099  -8.6044  -8.5534  -8.4988
    -5.2582  -5.2551  -5.2452  -5.2421  -5.2397  -5.2354  -5.2333  -5.2305
    -5.2255  -5.2221  -5.2170  -5.2131  -5.1688  -5.1641  -5.1598  -5.1581
    -5.1532  -5.1406  -5.1104  -5.1051  -5.1011  -5.0818  -5.0770  -5.0683
    -4.3306  -4.0923  -3.7992  -3.7805  -3.5536  -3.5136  -3.1949  -2.9259
    -0.7691  -0.6506  -0.6143  -0.5635  -0.5379  -0.5029  -0.4357  -0.3414
    -0.2177  -0.1291   0.0082   0.1292   0.3820   0.4700   0.4878   0.5202
     0.5674   0.6137   0.6460   0.6624   0.6873   0.7259   0.7830   0.8377
     0.8972   0.9469   0.9730   1.0254   1.0856   1.1104   1.1293   1.1788
     1.2126   1.2365   1.2618   1.3071   1.3256   1.3482   1.3706   1.4154
     1.4295   1.4511   1.4792   1.4950   1.5143   1.5336   1.5543   1.5705
     1.5983   1.6196   1.6349   1.6761   1.6903   1.7122   1.7621   1.7940
     1.8153   1.8416   1.8623   1.9167   1.9746   1.9892   2.0172   2.0676
     2.1344   2.1944   2.2623   2.3083   2.4296   2.4776   2.7920   2.9511

          k = 0.3750-0.1250 0.1250 (132608 PWs)   bands (ev):

   -18.4875 -18.4806 -18.4767 -18.4601 -18.3987 -18.3835 -18.3404 -18.3304
   -18.3239 -18.3163 -18.3146 -18.3069 -18.3028 -18.2920 -18.2816 -18.2773
   -18.2753 -18.2690 -18.2511 -18.2468 -18.2419 -18.2400 -18.2313 -18.2280
   -18.2273 -18.2253 -18.2155 -18.2141 -18.2097 -18.2020 -18.1938 -18.1916
   -18.1899 -18.1897 -18.1850 -18.1729 -18.1659 -18.1626 -18.1176 -18.1122
   -18.1056 -18.1019 -18.0991 -18.0256 -18.0121 -18.0008 -17.9946 -17.9919
    -9.4270  -9.3452  -9.2232  -9.2020  -9.1381  -9.0774  -9.0629  -9.0297
    -9.0065  -8.9588  -8.9331  -8.9135  -8.8919  -8.8600  -8.8471  -8.7908
    -8.7827  -8.7116  -8.7034  -8.6650  -8.6358  -8.5830  -8.5389  -8.5067
    -5.2565  -5.2551  -5.2453  -5.2420  -5.2405  -5.2377  -5.2332  -5.2312
    -5.2239  -5.2226  -5.2169  -5.2132  -5.1690  -5.1636  -5.1598  -5.1567
    -5.1535  -5.1408  -5.1103  -5.1050  -5.1010  -5.0821  -5.0774  -5.0682
    -4.3250  -4.1056  -3.7906  -3.7663  -3.5491  -3.5324  -3.1943  -2.9318
    -0.7304  -0.6901  -0.6539  -0.6004  -0.5268  -0.4750  -0.4004  -0.3225
    -0.1946  -0.0850  -0.0229   0.0982   0.3099   0.4864   0.5022   0.5343
     0.5465   0.6109   0.6412   0.6625   0.6888   0.7167   0.8032   0.8481
     0.8894   0.9345   1.0346   1.0667   1.0840   1.1093   1.1438   1.1635
     1.2125   1.2551   1.2767   1.2950   1.3322   1.3624   1.3815   1.3980
     1.4194   1.4408   1.4668   1.4744   1.5064   1.5199   1.5445   1.5802
     1.6067   1.6233   1.6464   1.6708   1.6853   1.7084   1.7644   1.7771
     1.8091   1.8603   1.8777   1.9121   1.9440   1.9728   2.0417   2.0924
     2.1210   2.1669   2.2114   2.3395   2.4103   2.5179   2.7913   2.9091

          k =-0.3750-0.1250-0.1250 (132608 PWs)   bands (ev):

   -18.4875 -18.4806 -18.4767 -18.4601 -18.3987 -18.3835 -18.3404 -18.3304
   -18.3239 -18.3163 -18.3146 -18.3069 -18.3028 -18.2920 -18.2816 -18.2773
   -18.2753 -18.2690 -18.2511 -18.2468 -18.2419 -18.2400 -18.2313 -18.2280
   -18.2273 -18.2253 -18.2155 -18.2141 -18.2097 -18.2020 -18.1938 -18.1916
   -18.1899 -18.1897 -18.1850 -18.1729 -18.1659 -18.1626 -18.1176 -18.1122
   -18.1056 -18.1019 -18.0991 -18.0256 -18.0121 -18.0008 -17.9946 -17.9919
    -9.4265  -9.3472  -9.2175  -9.2023  -9.1436  -9.0825  -9.0482  -9.0419
    -8.9996  -8.9583  -8.9392  -8.9176  -8.8780  -8.8605  -8.8507  -8.7952
    -8.7841  -8.7087  -8.7023  -8.6664  -8.6347  -8.5832  -8.5392  -8.5066
    -5.2575  -5.2541  -5.2457  -5.2418  -5.2403  -5.2374  -5.2331  -5.2316
    -5.2246  -5.2216  -5.2173  -5.2131  -5.1689  -5.1636  -5.1599  -5.1567
    -5.1535  -5.1407  -5.1104  -5.1049  -5.1011  -5.0820  -5.0774  -5.0681
    -4.3243  -4.1092  -3.7868  -3.7598  -3.5579  -3.5343  -3.1870  -2.9366
    -0.7382  -0.6729  -0.6463  -0.5992  -0.5354  -0.4567  -0.4037  -0.3342
    -0.2211  -0.0892  -0.0293   0.1072   0.3236   0.4876   0.5138   0.5405
     0.5557   0.6146   0.6228   0.6600   0.6845   0.7142   0.8002   0.8359
     0.9099   0.9462   1.0307   1.0487   1.0738   1.1060   1.1265   1.1807
     1.2139   1.2378   1.2821   1.3217   1.3447   1.3589   1.3794   1.4006
     1.4227   1.4387   1.4508   1.4902   1.5054   1.5284   1.5520   1.5724
     1.5986   1.6133   1.6387   1.6679   1.6955   1.7195   1.7521   1.7714
     1.8199   1.8479   1.8719   1.9141   1.9381   1.9672   2.0510   2.1054
     2.1328   2.1830   2.2005   2.3548   2.4023   2.5223   2.7764   2.8830

          k = 0.3750 0.1250-0.1250 (132608 PWs)   bands (ev):

   -18.4875 -18.4806 -18.4767 -18.4601 -18.3987 -18.3835 -18.3404 -18.3304
   -18.3239 -18.3163 -18.3146 -18.3069 -18.3028 -18.2920 -18.2816 -18.2773
   -18.2753 -18.2690 -18.2511 -18.2468 -18.2419 -18.2400 -18.2313 -18.2280
   -18.2273 -18.2253 -18.2155 -18.2141 -18.2097 -18.2020 -18.1938 -18.1916
   -18.1899 -18.1897 -18.1850 -18.1729 -18.1659 -18.1626 -18.1176 -18.1122
   -18.1056 -18.1019 -18.0991 -18.0256 -18.0121 -18.0008 -17.9946 -17.9919
    -9.4259  -9.3486  -9.2195  -9.1953  -9.1484  -9.0791  -9.0646  -9.0236
    -9.0050  -8.9546  -8.9389  -8.9203  -8.8781  -8.8647  -8.8495  -8.7899
    -8.7849  -8.7130  -8.7004  -8.6678  -8.6329  -8.5825  -8.5406  -8.5061
    -5.2575  -5.2539  -5.2456  -5.2419  -5.2403  -5.2374  -5.2330  -5.2317
    -5.2248  -5.2215  -5.2172  -5.2130  -5.1691  -5.1636  -5.1599  -5.1566
    -5.1534  -5.1408  -5.1103  -5.1049  -5.1011  -5.0820  -5.0775  -5.0681
    -4.3236  -4.1094  -3.7903  -3.7586  -3.5600  -3.5309  -3.1860  -2.9369
    -0.7212  -0.6879  -0.6665  -0.5955  -0.5240  -0.4707  -0.3921  -0.3279
    -0.2173  -0.0929  -0.0326   0.1145   0.3351   0.4800   0.5224   0.5308
     0.5494   0.6045   0.6315   0.6615   0.6920   0.7016   0.8000   0.8329
     0.9022   0.9428   1.0163   1.0668   1.0829   1.1165   1.1547   1.1812
     1.1950   1.2271   1.2696   1.3020   1.3353   1.3719   1.3837   1.4051
     1.4220   1.4417   1.4771   1.4863   1.5095   1.5302   1.5563   1.5642
     1.5971   1.6324   1.6413   1.6586   1.6838   1.7100   1.7604   1.7774
     1.7918   1.8492   1.8686   1.9174   1.9598   1.9773   2.0557   2.0756
     2.1418   2.1659   2.2339   2.3200   2.3758   2.5373   2.8014   2.8949

          k =-0.3750 0.1250 0.1250 (132608 PWs)   bands (ev):

   -18.4875 -18.4806 -18.4767 -18.4601 -18.3987 -18.3835 -18.3404 -18.3304
   -18.3239 -18.3163 -18.3146 -18.3069 -18.3028 -18.2920 -18.2816 -18.2773
   -18.2753 -18.2690 -18.2511 -18.2468 -18.2419 -18.2400 -18.2313 -18.2280
   -18.2273 -18.2253 -18.2155 -18.2141 -18.2097 -18.2020 -18.1938 -18.1916
   -18.1899 -18.1897 -18.1850 -18.1729 -18.1659 -18.1626 -18.1176 -18.1122
   -18.1056 -18.1019 -18.0991 -18.0256 -18.0121 -18.0008 -17.9946 -17.9919
    -9.4266  -9.3470  -9.2146  -9.2043  -9.1454  -9.0805  -9.0550  -9.0370
    -9.0010  -8.9564  -8.9364  -8.9128  -8.8941  -8.8559  -8.8444  -8.7958
    -8.7861  -8.7084  -8.7008  -8.6688  -8.6344  -8.5821  -8.5400  -8.5064
    -5.2566  -5.2549  -5.2454  -5.2421  -5.2403  -5.2377  -5.2332  -5.2312
    -5.2239  -5.2227  -5.2169  -5.2131  -5.1691  -5.1634  -5.1600  -5.1568
    -5.1536  -5.1407  -5.1103  -5.1050  -5.1010  -5.0820  -5.0774  -5.0682
    -4.3249  -4.1065  -3.7902  -3.7638  -3.5530  -3.5304  -3.1937  -2.9330
    -0.7382  -0.6925  -0.6367  -0.5934  -0.5305  -0.4741  -0.3934  -0.3421
    -0.1924  -0.0883  -0.0284   0.1046   0.3211   0.4790   0.5047   0.5243
     0.5555   0.6033   0.6365   0.6680   0.6832   0.7175   0.7992   0.8463
     0.8969   0.9447   1.0442   1.0515   1.0714   1.1206   1.1438   1.1571
     1.2133   1.2403   1.2734   1.3112   1.3485   1.3621   1.3857   1.4038
     1.4178   1.4375   1.4608   1.4750   1.5142   1.5313   1.5443   1.5806
     1.6010   1.6301   1.6442   1.6527   1.6790   1.7102   1.7590   1.7760
     1.7975   1.8426   1.8749   1.9150   1.9691   1.9758   2.0480   2.0770
     2.1491   2.1731   2.2265   2.3368   2.3810   2.5471   2.7699   2.8877

          k =-0.1250 0.3750 0.1250 (132608 PWs)   bands (ev):

   -18.4875 -18.4806 -18.4767 -18.4601 -18.3987 -18.3835 -18.3404 -18.3304
   -18.3239 -18.3163 -18.3146 -18.3069 -18.3028 -18.2920 -18.2816 -18.2773
   -18.2753 -18.2690 -18.2511 -18.2468 -18.2419 -18.2400 -18.2313 -18.2280
   -18.2273 -18.2253 -18.2155 -18.2141 -18.2097 -18.2020 -18.1938 -18.1916
   -18.1899 -18.1897 -18.1850 -18.1729 -18.1659 -18.1626 -18.1176 -18.1122
   -18.1056 -18.1019 -18.0991 -18.0256 -18.0121 -18.0008 -17.9946 -17.9919
    -9.4436  -9.2948  -9.2487  -9.2151  -9.1260  -9.0838  -9.0655  -9.0256
    -8.9955  -8.9750  -8.9521  -8.9298  -8.8914  -8.8437  -8.8251  -8.7863
    -8.7762  -8.7083  -8.6902  -8.6709  -8.6417  -8.6115  -8.5434  -8.4900
    -5.2571  -5.2544  -5.2456  -5.2424  -5.2394  -5.2363  -5.2338  -5.2307
    -5.2248  -5.2239  -5.2169  -5.2128  -5.1685  -5.1637  -5.1595  -5.1579
    -5.1529  -5.1406  -5.1107  -5.1051  -5.1011  -5.0821  -5.0768  -5.0683
    -4.3344  -4.0862  -3.8004  -3.7877  -3.5351  -3.5103  -3.2137  -2.9235
    -0.7811  -0.7265  -0.6185  -0.5809  -0.5190  -0.4747  -0.3794  -0.2972
    -0.1845  -0.1138  -0.0244   0.0498   0.4061   0.4417   0.4852   0.5288
     0.5919   0.6156   0.6563   0.6713   0.6977   0.7126   0.7620   0.7934
     0.8876   0.8985   0.9936   1.0236   1.0792   1.1455   1.1708   1.2036
     1.2458   1.2636   1.3043   1.3214   1.3361   1.3562   1.3845   1.4077
     1.4196   1.4478   1.4630   1.4838   1.5167   1.5308   1.5554   1.5698
     1.5796   1.6160   1.6390   1.6678   1.7100   1.7308   1.7499   1.7767
     1.8082   1.8247   1.8538   1.9031   1.9449   1.9585   2.0325   2.0625
     2.1072   2.1910   2.2664   2.3134   2.4626   2.4888   2.7475   2.9562

          k =-0.1250-0.3750-0.1250 (132608 PWs)   bands (ev):

   -18.4875 -18.4806 -18.4767 -18.4601 -18.3987 -18.3835 -18.3404 -18.3304
   -18.3239 -18.3163 -18.3146 -18.3069 -18.3028 -18.2920 -18.2816 -18.2773
   -18.2753 -18.2690 -18.2511 -18.2468 -18.2419 -18.2400 -18.2313 -18.2280
   -18.2273 -18.2253 -18.2155 -18.2141 -18.2097 -18.2020 -18.1938 -18.1916
   -18.1899 -18.1897 -18.1850 -18.1729 -18.1659 -18.1626 -18.1176 -18.1122
   -18.1056 -18.1019 -18.0991 -18.0256 -18.0121 -18.0008 -17.9946 -17.9919
    -9.4435  -9.2968  -9.2419  -9.2212  -9.1289  -9.0793  -9.0587  -9.0262
    -9.0001  -8.9852  -8.9420  -8.9343  -8.8876  -8.8422  -8.8288  -8.7858
    -8.7764  -8.7097  -8.6899  -8.6677  -8.6420  -8.6130  -8.5432  -8.4900
    -5.2576  -5.2539  -5.2457  -5.2423  -5.2395  -5.2354  -5.2341  -5.2311
    -5.2255  -5.2229  -5.2172  -5.2129  -5.1683  -5.1639  -5.1595  -5.1579
    -5.1529  -5.1406  -5.1107  -5.1050  -5.1012  -5.0821  -5.0769  -5.0682
    -4.3336  -4.0898  -3.7932  -3.7873  -3.5389  -3.5158  -3.2056  -2.9274
    -0.7613  -0.7393  -0.6233  -0.5797  -0.5118  -0.4728  -0.3824  -0.3202
    -0.1798  -0.1173  -0.0169   0.0474   0.4124   0.4513   0.4839   0.5371
     0.5870   0.6056   0.6566   0.6696   0.6878   0.7216   0.7744   0.7955
     0.8698   0.9265   0.9582   1.0320   1.1141   1.1499   1.1713   1.1958
     1.2382   1.2513   1.2904   1.3177   1.3326   1.3478   1.3767   1.3889
     1.4409   1.4563   1.4649   1.4937   1.5082   1.5199   1.5499   1.5687
     1.5924   1.6208   1.6426   1.6804   1.7058   1.7319   1.7650   1.7769
     1.8113   1.8307   1.8507   1.8958   1.9279   1.9649   2.0380   2.0635
     2.1008   2.2065   2.2496   2.3276   2.4234   2.5090   2.7603   2.9443

          k = 0.1250 0.3750-0.1250 (132608 PWs)   bands (ev):

   -18.4875 -18.4806 -18.4767 -18.4601 -18.3987 -18.3835 -18.3404 -18.3304
   -18.3239 -18.3163 -18.3146 -18.3069 -18.3028 -18.2920 -18.2816 -18.2773
   -18.2753 -18.2690 -18.2511 -18.2468 -18.2419 -18.2400 -18.2313 -18.2280
   -18.2273 -18.2253 -18.2155 -18.2141 -18.2097 -18.2020 -18.1938 -18.1916
   -18.1899 -18.1897 -18.1850 -18.1729 -18.1659 -18.1626 -18.1176 -18.1122
   -18.1056 -18.1019 -18.0991 -18.0256 -18.0121 -18.0008 -17.9946 -17.9919
    -9.4432  -9.2990  -9.2455  -9.2122  -9.1280  -9.0891  -9.0626  -9.0229
    -8.9898  -8.9786  -8.9534  -8.9333  -8.8876  -8.8471  -8.8280  -8.7809
    -8.7737  -8.7148  -8.6884  -8.6716  -8.6378  -8.6130  -8.5440  -8.4898
    -5.2576  -5.2538  -5.2458  -5.2423  -5.2395  -5.2354  -5.2339  -5.2312
    -5.2255  -5.2229  -5.2172  -5.2128  -5.1684  -5.1639  -5.1593  -5.1579
    -5.1527  -5.1408  -5.1107  -5.1050  -5.1013  -5.0821  -5.0769  -5.0682
    -4.3327  -4.0908  -3.8010  -3.7802  -3.5418  -3.5119  -3.2062  -2.9268
    -0.7752  -0.7223  -0.6189  -0.5889  -0.5103  -0.4757  -0.3931  -0.3180
    -0.1803  -0.1114  -0.0060   0.0549   0.4087   0.4556   0.4875   0.5324
     0.5776   0.6077   0.6540   0.6572   0.6873   0.7159   0.7691   0.8108
     0.8860   0.8985   0.9859   1.0260   1.0882   1.1390   1.1877   1.2113
     1.2424   1.2632   1.2826   1.3147   1.3417   1.3586   1.3763   1.4052
     1.4264   1.4409   1.4634   1.4746   1.5132   1.5257   1.5401   1.5782
     1.5965   1.6040   1.6364   1.6848   1.7267   1.7382   1.7560   1.7831
     1.8022   1.8365   1.8474   1.9113   1.9348   1.9623   2.0210   2.0481
     2.0988   2.1955   2.2622   2.3025   2.4494   2.5267   2.7430   2.9595

          k = 0.1250-0.3750 0.1250 (132608 PWs)   bands (ev):

   -18.4875 -18.4806 -18.4767 -18.4601 -18.3987 -18.3835 -18.3404 -18.3304
   -18.3239 -18.3163 -18.3146 -18.3069 -18.3028 -18.2920 -18.2816 -18.2773
   -18.2753 -18.2690 -18.2511 -18.2468 -18.2419 -18.2400 -18.2313 -18.2280
   -18.2273 -18.2253 -18.2155 -18.2141 -18.2097 -18.2020 -18.1938 -18.1916
   -18.1899 -18.1897 -18.1850 -18.1729 -18.1659 -18.1626 -18.1176 -18.1122
   -18.1056 -18.1019 -18.0991 -18.0256 -18.0121 -18.0008 -17.9946 -17.9919
    -9.4437  -9.2924  -9.2490  -9.2212  -9.1238  -9.0772  -9.0605  -9.0296
    -9.0024  -8.9848  -8.9398  -8.9293  -8.8913  -8.8503  -8.8251  -8.7803
    -8.7743  -8.7150  -8.6887  -8.6661  -8.6446  -8.6119  -8.5432  -8.4899
    -5.2570  -5.2544  -5.2456  -5.2425  -5.2395  -5.2362  -5.2338  -5.2306
    -5.2247  -5.2239  -5.2170  -5.2129  -5.1684  -5.1639  -5.1593  -5.1578
    -5.1529  -5.1408  -5.1107  -5.1051  -5.1011  -5.0822  -5.0768  -5.0683
    -4.3336  -4.0876  -3.8022  -3.7853  -3.5340  -3.5120  -3.2135  -2.9226
    -0.7697  -0.7393  -0.6153  -0.5812  -0.5140  -0.4804  -0.3930  -0.3105
    -0.1763  -0.1052  -0.0107   0.0558   0.3997   0.4481   0.4854   0.5344
     0.5789   0.6164   0.6481   0.6675   0.6907   0.7217   0.7713   0.7946
     0.8739   0.9174   0.9668   1.0260   1.1101   1.1590   1.1807   1.2209
     1.2450   1.2625   1.2882   1.3035   1.3135   1.3434   1.3722   1.3845
     1.4296   1.4327   1.4728   1.4900   1.5145   1.5261   1.5483   1.5809
     1.6096   1.6182   1.6335   1.6728   1.7178   1.7379   1.7527   1.7894
     1.8058   1.8232   1.8616   1.9088   1.9357   1.9572   2.0218   2.0512
     2.0988   2.1969   2.2657   2.2965   2.4525   2.5144   2.7641   2.9505

          k =-0.1250-0.3750 0.3750 (132616 PWs)   bands (ev):

   -18.4875 -18.4806 -18.4767 -18.4601 -18.3987 -18.3835 -18.3404 -18.3304
   -18.3239 -18.3163 -18.3146 -18.3069 -18.3028 -18.2920 -18.2816 -18.2773
   -18.2753 -18.2690 -18.2511 -18.2468 -18.2419 -18.2400 -18.2313 -18.2280
   -18.2273 -18.2253 -18.2155 -18.2141 -18.2097 -18.2020 -18.1938 -18.1916
   -18.1899 -18.1897 -18.1850 -18.1729 -18.1659 -18.1626 -18.1176 -18.1122
   -18.1056 -18.1019 -18.0991 -18.0256 -18.0121 -18.0008 -17.9946 -17.9919
    -9.4283  -9.3002  -9.2475  -9.2181  -9.1507  -9.1017  -9.0712  -9.0377
    -8.9805  -8.9592  -8.9356  -8.9164  -8.8849  -8.8489  -8.8255  -8.7905
    -8.7840  -8.7266  -8.6933  -8.6552  -8.6150  -8.6042  -8.5587  -8.5001
    -5.2576  -5.2537  -5.2459  -5.2421  -5.2395  -5.2354  -5.2339  -5.2311
    -5.2255  -5.2230  -5.2172  -5.2129  -5.1686  -5.1639  -5.1593  -5.1579
    -5.1526  -5.1407  -5.1108  -5.1049  -5.1015  -5.0819  -5.0770  -5.0683
    -4.2032  -3.9821  -3.9553  -3.7157  -3.6589  -3.4098  -3.3812  -3.1332
    -0.7272  -0.5967  -0.5896  -0.3793  -0.3382  -0.2498  -0.2261  -0.1546
    -0.0872  -0.0286   0.0840   0.2075   0.2939   0.4137   0.4664   0.5022
     0.5284   0.5612   0.5752   0.6014   0.6170   0.6708   0.6857   0.7559
     0.8310   0.8572   0.9281   0.9827   1.0069   1.0525   1.0787   1.1062
     1.1549   1.2066   1.2154   1.2462   1.2819   1.2855   1.3588   1.3791
     1.3982   1.4592   1.4645   1.5077   1.5279   1.5528   1.5894   1.6005
     1.6395   1.6653   1.6968   1.7107   1.7286   1.7612   1.7772   1.8052
     1.8226   1.8390   1.8643   1.8897   1.9241   1.9482   1.9937   2.0346
     2.0752   2.0923   2.1344   2.1978   2.3272   2.3935   2.5154   2.6944

          k =-0.1250 0.3750-0.3750 (132616 PWs)   bands (ev):

   -18.4875 -18.4806 -18.4767 -18.4601 -18.3987 -18.3835 -18.3404 -18.3304
   -18.3239 -18.3163 -18.3146 -18.3069 -18.3028 -18.2920 -18.2816 -18.2773
   -18.2753 -18.2690 -18.2511 -18.2468 -18.2419 -18.2400 -18.2313 -18.2280
   -18.2273 -18.2253 -18.2155 -18.2141 -18.2097 -18.2020 -18.1938 -18.1916
   -18.1899 -18.1897 -18.1850 -18.1729 -18.1659 -18.1626 -18.1176 -18.1122
   -18.1056 -18.1019 -18.0991 -18.0256 -18.0121 -18.0008 -17.9946 -17.9919
    -9.4289  -9.2953  -9.2442  -9.2316  -9.1461  -9.0952  -9.0721  -9.0418
    -8.9809  -8.9664  -8.9281  -8.9142  -8.8831  -8.8566  -8.8220  -8.7901
    -8.7848  -8.7257  -8.6937  -8.6537  -8.6154  -8.6065  -8.5576  -8.5001
    -5.2570  -5.2542  -5.2457  -5.2424  -5.2395  -5.2361  -5.2338  -5.2306
    -5.2247  -5.2239  -5.2170  -5.2130  -5.1685  -5.1639  -5.1592  -5.1579
    -5.1527  -5.1407  -5.1108  -5.1051  -5.1013  -5.0819  -5.0768  -5.0683
    -4.2042  -3.9812  -3.9542  -3.7109  -3.6641  -3.4129  -3.3813  -3.1301
    -0.7328  -0.6075  -0.5775  -0.3685  -0.3399  -0.2571  -0.2253  -0.1564
    -0.0820  -0.0293   0.0822   0.2109   0.2941   0.4054   0.4529   0.4937
     0.5479   0.5621   0.5874   0.6153   0.6235   0.6586   0.6975   0.7385
     0.8343   0.8573   0.9497   0.9639   1.0094   1.0503   1.0750   1.0895
     1.1492   1.2045   1.2134   1.2292   1.2774   1.3140   1.3446   1.3938
     1.4032   1.4387   1.4771   1.5073   1.5325   1.5551   1.5942   1.6122
     1.6322   1.6598   1.6922   1.6989   1.7302   1.7681   1.7840   1.7995
     1.8174   1.8422   1.8845   1.8880   1.9263   1.9454   1.9843   2.0383
     2.0607   2.1013   2.1308   2.2089   2.3140   2.3997   2.5267   2.6864

          k = 0.1250-0.3750-0.3750 (132616 PWs)   bands (ev):

   -18.4875 -18.4806 -18.4767 -18.4601 -18.3987 -18.3835 -18.3404 -18.3304
   -18.3239 -18.3163 -18.3146 -18.3069 -18.3028 -18.2920 -18.2816 -18.2773
   -18.2753 -18.2690 -18.2511 -18.2468 -18.2419 -18.2400 -18.2313 -18.2280
   -18.2273 -18.2253 -18.2155 -18.2141 -18.2097 -18.2020 -18.1938 -18.1916
   -18.1899 -18.1897 -18.1850 -18.1729 -18.1659 -18.1626 -18.1176 -18.1122
   -18.1056 -18.1019 -18.0991 -18.0256 -18.0121 -18.0008 -17.9946 -17.9919
    -9.4288  -9.2985  -9.2416  -9.2270  -9.1492  -9.0997  -9.0720  -9.0422
    -8.9774  -8.9586  -8.9304  -8.9203  -8.8888  -8.8430  -8.8224  -8.7979
    -8.7867  -8.7222  -8.6932  -8.6559  -8.6154  -8.6048  -8.5578  -8.5003
    -5.2571  -5.2542  -5.2457  -5.2422  -5.2394  -5.2362  -5.2337  -5.2306
    -5.2249  -5.2239  -5.2170  -5.2129  -5.1687  -5.1637  -5.1594  -5.1580
    -5.1528  -5.1405  -5.1108  -5.1051  -5.1013  -5.0819  -5.0768  -5.0684
    -4.2062  -3.9790  -3.9490  -3.7345  -3.6435  -3.4163  -3.3794  -3.1314
    -0.7381  -0.5976  -0.5785  -0.3783  -0.3443  -0.2411  -0.2098  -0.1476
    -0.1050   0.0302   0.0486   0.1338   0.3178   0.4003   0.4672   0.4974
     0.5318   0.5599   0.5833   0.6224   0.6521   0.6639   0.6893   0.7340
     0.8328   0.8781   0.9106   0.9807   0.9967   1.0460   1.0892   1.1050
     1.1529   1.1857   1.2034   1.2585   1.2818   1.3265   1.3376   1.3875
     1.4056   1.4363   1.4646   1.5081   1.5266   1.5802   1.5974   1.6103
     1.6375   1.6542   1.6728   1.6974   1.7418   1.7484   1.7789   1.7850
     1.8231   1.8356   1.8596   1.9027   1.9265   1.9533   2.0109   2.0356
     2.0890   2.1101   2.1299   2.2034   2.2909   2.4117   2.5057   2.6896

          k = 0.3750 0.1250-0.3750 (132616 PWs)   bands (ev):

   -18.4875 -18.4806 -18.4767 -18.4601 -18.3987 -18.3835 -18.3404 -18.3304
   -18.3239 -18.3163 -18.3146 -18.3069 -18.3028 -18.2920 -18.2816 -18.2773
   -18.2753 -18.2690 -18.2511 -18.2468 -18.2419 -18.2399 -18.2313 -18.2280
   -18.2273 -18.2253 -18.2155 -18.2141 -18.2097 -18.2020 -18.1938 -18.1916
   -18.1899 -18.1897 -18.1850 -18.1729 -18.1659 -18.1626 -18.1176 -18.1122
   -18.1056 -18.1019 -18.0991 -18.0256 -18.0121 -18.0008 -17.9946 -17.9919
    -9.4124  -9.3355  -9.2456  -9.1984  -9.1727  -9.0900  -9.0658  -9.0309
    -8.9797  -8.9429  -8.9283  -8.9089  -8.8797  -8.8640  -8.8491  -8.8102
    -8.7819  -8.7210  -8.7053  -8.6485  -8.6098  -8.5838  -8.5554  -8.5144
    -5.2573  -5.2539  -5.2456  -5.2418  -5.2403  -5.2375  -5.2330  -5.2316
    -5.2248  -5.2216  -5.2173  -5.2132  -5.1690  -5.1636  -5.1598  -5.1565
    -5.1535  -5.1410  -5.1103  -5.1050  -5.1012  -5.0818  -5.0776  -5.0681
    -4.1948  -3.9842  -3.9570  -3.7435  -3.6385  -3.4085  -3.3730  -3.1436
    -0.6693  -0.6030  -0.5486  -0.4757  -0.3798  -0.2469  -0.1967  -0.1603
    -0.0661  -0.0031   0.0686   0.2217   0.3129   0.3762   0.4296   0.4896
     0.5282   0.5502   0.5861   0.6396   0.6597   0.6713   0.7082   0.7968
     0.8087   0.8601   0.8948   0.9210   0.9943   1.0183   1.0645   1.1116
     1.1234   1.2011   1.2216   1.2632   1.2841   1.3638   1.3973   1.4085
     1.4176   1.4385   1.4964   1.5169   1.5365   1.5529   1.5648   1.5833
     1.6128   1.6419   1.6655   1.6844   1.7110   1.7292   1.7577   1.7895
     1.8316   1.8534   1.8806   1.9112   1.9449   1.9800   2.0118   2.0344
     2.0813   2.1066   2.1387   2.1607   2.3063   2.4443   2.5383   2.6243

          k =-0.3750-0.1250-0.3750 (132616 PWs)   bands (ev):

   -18.4875 -18.4806 -18.4767 -18.4601 -18.3987 -18.3835 -18.3404 -18.3304
   -18.3239 -18.3163 -18.3146 -18.3069 -18.3028 -18.2920 -18.2816 -18.2773
   -18.2753 -18.2690 -18.2511 -18.2468 -18.2419 -18.2399 -18.2313 -18.2280
   -18.2273 -18.2253 -18.2155 -18.2141 -18.2097 -18.2020 -18.1938 -18.1916
   -18.1899 -18.1897 -18.1850 -18.1729 -18.1659 -18.1626 -18.1176 -18.1122
   -18.1056 -18.1019 -18.0991 -18.0256 -18.0121 -18.0008 -17.9946 -17.9919
    -9.4132  -9.3328  -9.2489  -9.2006  -9.1689  -9.0898  -9.0637  -9.0329
    -8.9812  -8.9429  -8.9287  -8.9110  -8.8776  -8.8567  -8.8505  -8.8167
    -8.7815  -8.7181  -8.7074  -8.6457  -8.6111  -8.5871  -8.5522  -8.5150
    -5.2572  -5.2541  -5.2457  -5.2416  -5.2403  -5.2375  -5.2330  -5.2315
    -5.2246  -5.2218  -5.2173  -5.2132  -5.1689  -5.1636  -5.1598  -5.1566
    -5.1536  -5.1408  -5.1104  -5.1050  -5.1012  -5.0818  -5.0776  -5.0681
    -4.1967  -3.9847  -3.9526  -3.7472  -3.6342  -3.4077  -3.3780  -3.1425
    -0.6712  -0.5929  -0.5416  -0.4858  -0.3830  -0.2666  -0.1999  -0.1199
    -0.0528  -0.0153   0.0626   0.1905   0.2663   0.4114   0.4360   0.4998
     0.5351   0.5606   0.5954   0.6297   0.6559   0.6770   0.7191   0.7771
     0.8226   0.8689   0.9076   0.9319   0.9606   0.9874   1.0702   1.1303
     1.1422   1.1737   1.2046   1.2604   1.3175   1.3633   1.3894   1.4098
     1.4337   1.4526   1.4911   1.5115   1.5237   1.5440   1.5610   1.5788
     1.5997   1.6217   1.6677   1.6905   1.7008   1.7440   1.7772   1.8019
     1.8422   1.8554   1.8693   1.9142   1.9350   1.9798   2.0032   2.0500
     2.0690   2.0997   2.1387   2.1838   2.3354   2.4559   2.4940   2.6138

          k = 0.3750-0.1250 0.3750 (132616 PWs)   bands (ev):

   -18.4875 -18.4806 -18.4767 -18.4601 -18.3987 -18.3835 -18.3404 -18.3304
   -18.3239 -18.3163 -18.3146 -18.3069 -18.3028 -18.2920 -18.2816 -18.2773
   -18.2753 -18.2690 -18.2511 -18.2468 -18.2419 -18.2399 -18.2313 -18.2280
   -18.2273 -18.2253 -18.2155 -18.2141 -18.2097 -18.2020 -18.1938 -18.1916
   -18.1899 -18.1897 -18.1850 -18.1729 -18.1659 -18.1626 -18.1176 -18.1122
   -18.1056 -18.1019 -18.0991 -18.0256 -18.0121 -18.0008 -17.9946 -17.9919
    -9.4136  -9.3310  -9.2507  -9.2039  -9.1637  -9.0906  -9.0664  -9.0321
    -8.9799  -8.9454  -8.9209  -8.9101  -8.8798  -8.8701  -8.8472  -8.8098
    -8.7800  -8.7180  -8.7101  -8.6459  -8.6107  -8.5871  -8.5524  -8.5148
    -5.2563  -5.2550  -5.2453  -5.2419  -5.2405  -5.2378  -5.2331  -5.2311
    -5.2239  -5.2227  -5.2169  -5.2134  -5.1690  -5.1636  -5.1598  -5.1566
    -5.1535  -5.1409  -5.1103  -5.1051  -5.1010  -5.0819  -5.0775  -5.0682
    -4.1966  -3.9811  -3.9549  -3.7507  -3.6325  -3.4047  -3.3835  -3.1389
    -0.6807  -0.5961  -0.5416  -0.4871  -0.3724  -0.2671  -0.1995  -0.1190
    -0.0549  -0.0022   0.0623   0.2026   0.2569   0.4040   0.4315   0.4997
     0.5260   0.5633   0.6040   0.6249   0.6682   0.6795   0.7292   0.7671
     0.8157   0.8603   0.8997   0.9351   0.9691   1.0024   1.0585   1.1188
     1.1272   1.1778   1.2343   1.2624   1.3073   1.3493   1.3888   1.3986
     1.4326   1.4682   1.4863   1.5118   1.5203   1.5468   1.5622   1.5867
     1.6074   1.6258   1.6583   1.6801   1.7195   1.7455   1.7727   1.8119
     1.8345   1.8598   1.8798   1.9123   1.9359   1.9781   1.9996   2.0384
     2.0611   2.1014   2.1297   2.1783   2.3156   2.4643   2.5163   2.6293

          k =-0.3750 0.1250 0.3750 (132616 PWs)   bands (ev):

   -18.4875 -18.4806 -18.4767 -18.4601 -18.3987 -18.3835 -18.3404 -18.3304
   -18.3239 -18.3163 -18.3146 -18.3069 -18.3028 -18.2920 -18.2816 -18.2773
   -18.2753 -18.2690 -18.2511 -18.2468 -18.2419 -18.2399 -18.2313 -18.2280
   -18.2273 -18.2253 -18.2155 -18.2141 -18.2097 -18.2020 -18.1938 -18.1916
   -18.1899 -18.1897 -18.1850 -18.1729 -18.1659 -18.1626 -18.1176 -18.1122
   -18.1056 -18.1019 -18.0991 -18.0256 -18.0121 -18.0008 -17.9946 -17.9919
    -9.4131  -9.3343  -9.2438  -9.1990  -9.1758  -9.0868  -9.0671  -9.0343
    -8.9794  -8.9385  -8.9225  -8.9148  -8.8870  -8.8575  -8.8425  -8.8187
    -8.7834  -8.7180  -8.7050  -8.6489  -8.6108  -8.5835  -8.5549  -8.5145
    -5.2564  -5.2548  -5.2454  -5.2419  -5.2403  -5.2378  -5.2331  -5.2311
    -5.2240  -5.2228  -5.2169  -5.2132  -5.1691  -5.1634  -5.1599  -5.1567
    -5.1537  -5.1408  -5.1103  -5.1051  -5.1010  -5.0818  -5.0775  -5.0682
    -4.1965  -3.9826  -3.9565  -3.7365  -3.6455  -3.4068  -3.3775  -3.1413
    -0.6840  -0.5908  -0.5407  -0.4854  -0.3679  -0.2472  -0.1956  -0.1652
    -0.0591   0.0025   0.0591   0.2135   0.3028   0.3789   0.4311   0.4868
     0.5215   0.5549   0.5953   0.6293   0.6469   0.6748   0.7354   0.7785
     0.8183   0.8880   0.8909   0.9202   1.0016   1.0174   1.0459   1.0834
     1.1227   1.2021   1.2267   1.2786   1.3130   1.3529   1.3893   1.3973
     1.4165   1.4746   1.4924   1.4996   1.5360   1.5430   1.5549   1.5823
     1.6042   1.6378   1.6560   1.6827   1.7040   1.7354   1.7576   1.7886
     1.8370   1.8623   1.8962   1.9206   1.9431   1.9857   2.0124   2.0364
     2.0598   2.1068   2.1424   2.1840   2.3274   2.4481   2.5107   2.6056

          k = 0.3750-0.3750 0.1250 (132616 PWs)   bands (ev):

   -18.4875 -18.4806 -18.4767 -18.4601 -18.3987 -18.3835 -18.3404 -18.3304
   -18.3239 -18.3163 -18.3146 -18.3069 -18.3028 -18.2920 -18.2816 -18.2773
   -18.2753 -18.2690 -18.2511 -18.2468 -18.2419 -18.2400 -18.2313 -18.2280
   -18.2273 -18.2253 -18.2155 -18.2141 -18.2097 -18.2020 -18.1938 -18.1916
   -18.1899 -18.1897 -18.1850 -18.1729 -18.1659 -18.1626 -18.1176 -18.1122
   -18.1056 -18.1019 -18.0991 -18.0256 -18.0121 -18.0008 -17.9946 -17.9919
    -9.4195  -9.3326  -9.2421  -9.2042  -9.1322  -9.0922  -9.0759  -9.0349
    -8.9976  -8.9755  -8.9392  -8.9068  -8.8951  -8.8405  -8.8257  -8.7805
    -8.7760  -8.7149  -8.6999  -8.6705  -8.6427  -8.5849  -8.5443  -8.5064
    -5.2565  -5.2555  -5.2455  -5.2421  -5.2395  -5.2379  -5.2334  -5.2312
    -5.2245  -5.2222  -5.2162  -5.2127  -5.1692  -5.1637  -5.1598  -5.1569
    -5.1535  -5.1412  -5.1108  -5.1047  -5.1008  -5.0823  -5.0772  -5.0681
    -4.2036  -3.9916  -3.9393  -3.7094  -3.6563  -3.4289  -3.3818  -3.1323
    -0.7134  -0.6519  -0.4883  -0.4341  -0.3984  -0.2312  -0.1858  -0.1610
    -0.0556   0.0180   0.0628   0.1553   0.2239   0.4042   0.4695   0.5124
     0.5435   0.5738   0.5941   0.6149   0.6522   0.6585   0.7113   0.7349
     0.8334   0.8706   0.9355   0.9926   1.0394   1.0522   1.0900   1.1033
     1.1467   1.1939   1.2144   1.2381   1.2757   1.3022   1.3564   1.3752
     1.4031   1.4201   1.4560   1.4962   1.5428   1.5694   1.5825   1.6097
     1.6213   1.6583   1.6889   1.7087   1.7231   1.7546   1.7778   1.8030
     1.8155   1.8586   1.8918   1.8943   1.9272   1.9428   1.9980   2.0213
     2.0384   2.0826   2.1280   2.1983   2.3068   2.4230   2.5513   2.6419

          k =-0.3750-0.3750-0.1250 (132616 PWs)   bands (ev):

   -18.4875 -18.4806 -18.4767 -18.4601 -18.3987 -18.3835 -18.3404 -18.3304
   -18.3239 -18.3163 -18.3146 -18.3069 -18.3028 -18.2920 -18.2816 -18.2773
   -18.2753 -18.2690 -18.2511 -18.2468 -18.2419 -18.2400 -18.2313 -18.2280
   -18.2273 -18.2253 -18.2155 -18.2141 -18.2097 -18.2020 -18.1938 -18.1916
   -18.1899 -18.1897 -18.1850 -18.1729 -18.1659 -18.1626 -18.1176 -18.1122
   -18.1056 -18.1019 -18.0991 -18.0256 -18.0121 -18.0008 -17.9946 -17.9919
    -9.4189  -9.3357  -9.2351  -9.2056  -9.1369  -9.1002  -9.0640  -9.0373
    -8.9928  -8.9797  -8.9385  -8.9172  -8.8846  -8.8361  -8.8266  -8.7844
    -8.7814  -8.7105  -8.6981  -8.6728  -8.6415  -8.5851  -8.5447  -8.5064
    -5.2574  -5.2547  -5.2457  -5.2418  -5.2394  -5.2375  -5.2334  -5.2314
    -5.2251  -5.2216  -5.2165  -5.2126  -5.1691  -5.1637  -5.1599  -5.1569
    -5.1535  -5.1411  -5.1108  -5.1046  -5.1010  -5.0823  -5.0772  -5.0680
    -4.2003  -4.0232  -3.9018  -3.7202  -3.6438  -3.4795  -3.3307  -3.1442
    -0.7152  -0.6527  -0.4760  -0.4047  -0.3703  -0.3020  -0.1940  -0.1382
    -0.0931   0.0051   0.0529   0.1615   0.2666   0.4362   0.4593   0.5214
     0.5452   0.5526   0.5919   0.6240   0.6375   0.6579   0.6872   0.7570
     0.8341   0.8839   0.9339   0.9893   1.0179   1.0653   1.0745   1.1102
     1.1498   1.1955   1.2053   1.2403   1.2709   1.3010   1.3502   1.3773
     1.4199   1.4491   1.4680   1.4910   1.5255   1.5688   1.5831   1.5979
     1.6118   1.6579   1.6969   1.7084   1.7303   1.7510   1.7718   1.8025
     1.8156   1.8366   1.8610   1.8975   1.9316   1.9627   2.0084   2.0303
     2.0666   2.0851   2.1375   2.1881   2.3127   2.4240   2.5281   2.6283

          k = 0.3750 0.3750-0.1250 (132616 PWs)   bands (ev):

   -18.4875 -18.4806 -18.4767 -18.4601 -18.3987 -18.3835 -18.3404 -18.3304
   -18.3239 -18.3163 -18.3146 -18.3069 -18.3028 -18.2920 -18.2816 -18.2773
   -18.2753 -18.2690 -18.2511 -18.2468 -18.2419 -18.2400 -18.2313 -18.2280
   -18.2273 -18.2253 -18.2155 -18.2141 -18.2097 -18.2020 -18.1938 -18.1916
   -18.1899 -18.1897 -18.1850 -18.1729 -18.1659 -18.1626 -18.1176 -18.1122
   -18.1056 -18.1019 -18.0991 -18.0256 -18.0121 -18.0008 -17.9946 -17.9919
    -9.4183  -9.3370  -9.2391  -9.1956  -9.1402  -9.1019  -9.0751  -9.0227
    -8.9993  -8.9726  -8.9417  -8.9168  -8.8870  -8.8353  -8.8316  -8.7815
    -8.7750  -8.7155  -8.6989  -8.6737  -8.6395  -8.5840  -8.5459  -8.5061
    -5.2574  -5.2546  -5.2457  -5.2419  -5.2394  -5.2375  -5.2333  -5.2315
    -5.2252  -5.2216  -5.2164  -5.2126  -5.1693  -5.1637  -5.1598  -5.1569
    -5.1534  -5.1412  -5.1108  -5.1046  -5.1010  -5.0822  -5.0773  -5.0680
    -4.1992  -4.0233  -3.9020  -3.7295  -3.6356  -3.4791  -3.3309  -3.1439
    -0.7089  -0.6584  -0.5004  -0.4149  -0.3536  -0.2865  -0.1896  -0.1242
    -0.0971   0.0093   0.0407   0.1704   0.2606   0.4274   0.4728   0.5190
     0.5376   0.5523   0.5806   0.6159   0.6356   0.6670   0.6868   0.7668
     0.8225   0.8770   0.9307   1.0033   1.0266   1.0653   1.0833   1.1128
     1.1567   1.1763   1.1950   1.2589   1.2771   1.3193   1.3429   1.3689
     1.3900   1.4403   1.4746   1.5085   1.5372   1.5635   1.5783   1.5903
     1.6297   1.6505   1.6821   1.7167   1.7353   1.7468   1.7746   1.8042
     1.8127   1.8445   1.8719   1.9042   1.9364   1.9614   1.9871   2.0201
     2.0557   2.0931   2.1201   2.1910   2.3022   2.4255   2.5336   2.6561

          k =-0.3750 0.3750 0.1250 (132616 PWs)   bands (ev):

   -18.4875 -18.4806 -18.4767 -18.4601 -18.3987 -18.3835 -18.3404 -18.3304
   -18.3239 -18.3163 -18.3146 -18.3069 -18.3028 -18.2920 -18.2816 -18.2773
   -18.2753 -18.2690 -18.2511 -18.2468 -18.2419 -18.2400 -18.2313 -18.2280
   -18.2273 -18.2253 -18.2155 -18.2141 -18.2097 -18.2020 -18.1938 -18.1916
   -18.1899 -18.1897 -18.1850 -18.1729 -18.1659 -18.1626 -18.1176 -18.1122
   -18.1056 -18.1019 -18.0991 -18.0256 -18.0121 -18.0008 -17.9946 -17.9919
    -9.4192  -9.3346  -9.2392  -9.2009  -9.1343  -9.1030  -9.0729  -9.0313
    -8.9940  -8.9757  -8.9396  -8.9059  -8.8985  -8.8379  -8.8212  -8.7861
    -8.7804  -8.7084  -8.6992  -8.6751  -8.6415  -8.5836  -8.5452  -8.5064
    -5.2565  -5.2554  -5.2456  -5.2420  -5.2393  -5.2379  -5.2334  -5.2312
    -5.2245  -5.2224  -5.2162  -5.2126  -5.1693  -5.1635  -5.1600  -5.1570
    -5.1536  -5.1410  -5.1108  -5.1047  -5.1008  -5.0822  -5.0772  -5.0681
    -4.2042  -3.9926  -3.9378  -3.7052  -3.6594  -3.4298  -3.3813  -3.1332
    -0.7124  -0.6600  -0.4788  -0.4342  -0.3799  -0.2357  -0.1998  -0.1510
    -0.0653   0.0227   0.0530   0.1491   0.2268   0.4042   0.4633   0.5141
     0.5371   0.5690   0.5979   0.6296   0.6414   0.6663   0.7131   0.7398
     0.8272   0.8739   0.9364   1.0005   1.0182   1.0579   1.0982   1.1153
     1.1512   1.1735   1.2092   1.2244   1.2837   1.3146   1.3521   1.3633
     1.4181   1.4464   1.4713   1.5041   1.5362   1.5703   1.5844   1.6007
     1.6206   1.6457   1.6625   1.6883   1.7220   1.7602   1.7807   1.7936
     1.8237   1.8650   1.8817   1.9052   1.9141   1.9413   1.9889   2.0446
     2.0616   2.0926   2.1348   2.1884   2.3348   2.4083   2.5165   2.6430

          k =-0.3750-0.3750 0.3750 (132612 PWs)   bands (ev):

   -18.4875 -18.4806 -18.4767 -18.4601 -18.3987 -18.3835 -18.3404 -18.3304
   -18.3239 -18.3163 -18.3146 -18.3069 -18.3028 -18.2920 -18.2816 -18.2773
   -18.2753 -18.2690 -18.2511 -18.2468 -18.2419 -18.2400 -18.2313 -18.2280
   -18.2273 -18.2253 -18.2155 -18.2141 -18.2097 -18.2020 -18.1938 -18.1916
   -18.1899 -18.1897 -18.1850 -18.1729 -18.1659 -18.1626 -18.1176 -18.1122
   -18.1056 -18.1019 -18.0991 -18.0256 -18.0121 -18.0008 -17.9946 -17.9919
    -9.4060  -9.3251  -9.2392  -9.2098  -9.1744  -9.1176  -9.0828  -9.0207
    -8.9809  -8.9575  -8.9319  -8.9012  -8.8842  -8.8444  -8.8264  -8.7903
    -8.7852  -8.7267  -8.7028  -8.6560  -8.6117  -8.5846  -8.5596  -8.5149
    -5.2573  -5.2546  -5.2458  -5.2419  -5.2395  -5.2377  -5.2334  -5.2315
    -5.2253  -5.2218  -5.2166  -5.2128  -5.1692  -5.1636  -5.1595  -5.1566
    -5.1532  -5.1410  -5.1106  -5.1045  -5.1011  -5.0819  -5.0773  -5.0680
    -4.0707  -3.8981  -3.8457  -3.7722  -3.6644  -3.5799  -3.5133  -3.3336
    -0.4361  -0.3855  -0.3175  -0.2545  -0.2163  -0.1561  -0.1295  -0.1047
    -0.0527   0.0250   0.1114   0.2350   0.2757   0.3039   0.3772   0.4274
     0.4914   0.5123   0.5411   0.5718   0.5824   0.6340   0.6569   0.7313
     0.8101   0.8798   0.9144   0.9507   0.9919   1.0140   1.0373   1.0502
     1.1094   1.1225   1.1586   1.1799   1.1942   1.2360   1.2827   1.3123
     1.4090   1.4484   1.4933   1.4982   1.5601   1.5840   1.6069   1.6271
     1.6486   1.6620   1.7014   1.7284   1.7486   1.7685   1.7775   1.8073
     1.8376   1.8470   1.8623   1.8958   1.9170   1.9551   1.9717   2.0072
     2.0351   2.0607   2.0941   2.1163   2.1351   2.1807   2.2674   2.3577

          k =-0.3750 0.3750-0.3750 (132612 PWs)   bands (ev):

   -18.4875 -18.4806 -18.4767 -18.4601 -18.3987 -18.3835 -18.3404 -18.3304
   -18.3239 -18.3163 -18.3146 -18.3069 -18.3028 -18.2920 -18.2816 -18.2773
   -18.2753 -18.2690 -18.2511 -18.2468 -18.2419 -18.2400 -18.2313 -18.2280
   -18.2273 -18.2253 -18.2155 -18.2141 -18.2097 -18.2020 -18.1938 -18.1916
   -18.1899 -18.1897 -18.1850 -18.1729 -18.1659 -18.1626 -18.1176 -18.1122
   -18.1056 -18.1019 -18.0991 -18.0256 -18.0121 -18.0008 -17.9946 -17.9919
    -9.4072  -9.3200  -9.2398  -9.2231  -9.1623  -9.1178  -9.0828  -9.0237
    -8.9792  -8.9628  -8.9203  -8.9115  -8.8764  -8.8526  -8.8224  -8.7896
    -8.7865  -8.7251  -8.7042  -8.6545  -8.6115  -8.5888  -8.5569  -8.5150
    -5.2564  -5.2555  -5.2457  -5.2421  -5.2396  -5.2380  -5.2335  -5.2312
    -5.2246  -5.2224  -5.2165  -5.2129  -5.1691  -5.1635  -5.1595  -5.1566
    -5.1533  -5.1410  -5.1106  -5.1047  -5.1009  -5.0819  -5.0772  -5.0680
    -4.0754  -3.8614  -3.8479  -3.8212  -3.6213  -3.5769  -3.5491  -3.3244
    -0.4616  -0.3674  -0.2931  -0.2562  -0.2219  -0.1968  -0.1420  -0.0555
    -0.0265   0.0231   0.0777   0.2130   0.2721   0.3214   0.3730   0.4519
     0.4865   0.5251   0.5551   0.5746   0.5953   0.6225   0.6528   0.6976
     0.8311   0.8854   0.9063   0.9613   0.9735   1.0114   1.0233   1.0575
     1.0752   1.1242   1.1565   1.1863   1.1966   1.2482   1.2778   1.3450
     1.4163   1.4493   1.4671   1.5137   1.5280   1.5755   1.6045   1.6164
     1.6577   1.6684   1.7051   1.7270   1.7476   1.7775   1.7874   1.8149
     1.8443   1.8599   1.8812   1.8964   1.9135   1.9445   1.9739   1.9972
     2.0267   2.0407   2.0731   2.1112   2.1423   2.2295   2.2754   2.3318

          k = 0.3750-0.3750-0.3750 (132612 PWs)   bands (ev):

   -18.4875 -18.4806 -18.4767 -18.4601 -18.3987 -18.3835 -18.3404 -18.3304
   -18.3239 -18.3163 -18.3146 -18.3069 -18.3028 -18.2920 -18.2816 -18.2773
   -18.2753 -18.2690 -18.2511 -18.2468 -18.2419 -18.2400 -18.2313 -18.2280
   -18.2273 -18.2253 -18.2155 -18.2141 -18.2097 -18.2020 -18.1938 -18.1916
   -18.1899 -18.1897 -18.1850 -18.1729 -18.1659 -18.1626 -18.1176 -18.1122
   -18.1056 -18.1019 -18.0991 -18.0256 -18.0121 -18.0008 -17.9946 -17.9919
    -9.4068  -9.3235  -9.2302  -9.2225  -9.1715  -9.1168  -9.0833  -9.0247
    -8.9799  -8.9557  -8.9241  -8.9062  -8.8879  -8.8421  -8.8178  -8.7990
    -8.7896  -8.7215  -8.7029  -8.6564  -8.6129  -8.5844  -8.5591  -8.5151
    -5.2564  -5.2554  -5.2457  -5.2420  -5.2395  -5.2381  -5.2335  -5.2312
    -5.2246  -5.2226  -5.2164  -5.2128  -5.1692  -5.1634  -5.1597  -5.1567
    -5.1534  -5.1409  -5.1106  -5.1047  -5.1009  -5.0819  -5.0772  -5.0681
    -4.0771  -3.8699  -3.8367  -3.8178  -3.6260  -3.5824  -3.5420  -3.3259
    -0.4816  -0.3369  -0.2891  -0.2404  -0.2258  -0.1932  -0.1372  -0.0814
    -0.0197   0.0159   0.0648   0.2246   0.2513   0.3289   0.3793   0.4319
     0.4724   0.5200   0.5572   0.5890   0.6004   0.6135   0.6622   0.7114
     0.8217   0.8935   0.9226   0.9503   0.9780   1.0071   1.0293   1.0424
     1.0975   1.1100   1.1572   1.1924   1.2117   1.2548   1.2697   1.3201
     1.4135   1.4557   1.4942   1.5061   1.5430   1.5745   1.5890   1.6239
     1.6394   1.6710   1.6829   1.7237   1.7407   1.7546   1.7863   1.8093
     1.8375   1.8640   1.8899   1.9053   1.9283   1.9413   1.9705   2.0150
     2.0491   2.0701   2.0999   2.1164   2.1720   2.1837   2.2178   2.3309

     highest occupied level (ev):     3.2044

!    total energy              =   -2256.32205662 Ry
     estimated scf accuracy    <          3.0E-11 Ry

     The total energy is the sum of the following terms:
     one-electron contribution =    -987.85325468 Ry
     hartree contribution      =     622.01058446 Ry
     xc contribution           =    -647.45588391 Ry
     ewald contribution        =   -1243.02350249 Ry

     convergence has been achieved in  15 iterations

     Forces acting on atoms (cartesian axes, Ry/au):

     atom    1 type  1   force =     0.00028028    0.00432226   -0.00043584
     atom    2 type  2   force =    -0.01744391    0.00319729   -0.00083260
     atom    3 type  3   force =     0.01747569    0.00066413   -0.00378290
     atom    4 type  3   force =     0.00041213   -0.00041189   -0.01027019
     atom    5 type  3   force =    -0.00123389    0.00857713   -0.00109891
     atom    6 type  1   force =    -0.00021647    0.00380284   -0.00172443
     atom    7 type  2   force =    -0.00422757    0.00456899    0.00389734
     atom    8 type  3   force =     0.00190666    0.00039473    0.00140853
     atom    9 type  3   force =     0.00089653    0.00740969    0.00660528
     atom   10 type  3   force =     0.00061490   -0.01079931    0.00824486
     atom   11 type  1   force =    -0.00299909   -0.00258196    0.00273947
     atom   12 type  2   force =     0.01568231   -0.00488667   -0.00317645
     atom   13 type  3   force =     0.00227187   -0.00055264   -0.00191781
     atom   14 type  3   force =    -0.00317085    0.00759768   -0.01053546
     atom   15 type  3   force =    -0.00036357   -0.01720903    0.00428845
     atom   16 type  1   force =    -0.00223064   -0.00417202   -0.00287557
     atom   17 type  2   force =     0.00006485   -0.01062745   -0.00002235
     atom   18 type  3   force =    -0.01376119    0.00129743   -0.00072874
     atom   19 type  3   force =    -0.00400168    0.00018289    0.00104675
     atom   20 type  3   force =     0.00049089   -0.00053631   -0.00240295
     atom   21 type  1   force =     0.00041040   -0.00020621    0.00214771
     atom   22 type  2   force =     0.00051749   -0.01216470    0.00975543
     atom   23 type  3   force =     0.00159001    0.00302001   -0.00186183
     atom   24 type  3   force =    -0.00878267    0.00065047    0.00979064
     atom   25 type  3   force =     0.00208827    0.02063045    0.00172895
     atom   26 type  1   force =    -0.00092790    0.00304913   -0.00146590
     atom   27 type  2   force =     0.00687023    0.00132602   -0.00534021
     atom   28 type  3   force =     0.00225818    0.00284101    0.00866808
     atom   29 type  3   force =    -0.00136460   -0.00319814   -0.01494302
     atom   30 type  3   force =    -0.00070019   -0.01249573   -0.00079437
     atom   31 type  1   force =     0.00054809    0.00330292    0.00508266
     atom   32 type  2   force =    -0.00822335   -0.00286559   -0.00364816
     atom   33 type  3   force =     0.00183196   -0.00016125   -0.00022504
     atom   34 type  3   force =     0.00140795    0.00101674   -0.01819562
     atom   35 type  3   force =     0.00496377   -0.01136879   -0.00457783
     atom   36 type  1   force =     0.00225610   -0.00252359   -0.00301800
     atom   37 type  2   force =    -0.00270006    0.01224810    0.01124804
     atom   38 type  3   force =     0.00912986    0.00204483    0.00063129
     atom   39 type  3   force =    -0.00149075    0.00887184    0.01515030
     atom   40 type  3   force =    -0.00013005   -0.00425531    0.00144043

     Total force =     0.071863     Total SCF correction =     0.000028


     Computing stress (Cartesian axis) and pressure

          total   stress  (Ry/bohr**3)                   (kbar)     P=       -8.42
  -0.00005969   0.00000217  -0.00000170           -8.78        0.32       -0.25
   0.00000217  -0.00005034  -0.00000119            0.32       -7.41       -0.17
  -0.00000170  -0.00000119  -0.00006163           -0.25       -0.17       -9.07

 
     init_run     :     19.89s CPU     16.92s WALL (       1 calls)
     electrons    :    202.64s CPU    213.65s WALL (       1 calls)
     forces       :      8.78s CPU      3.87s WALL (       1 calls)
     stress       :     31.33s CPU     30.47s WALL (       1 calls)

     Called by init_run:
     wfcinit      :     12.10s CPU     13.88s WALL (       1 calls)
                                       13.88s GPU  (       1 calls)
     potinit      :      4.50s CPU      1.39s WALL (       1 calls)
     hinit0       :      2.72s CPU      0.98s WALL (       1 calls)

     Called by electrons:
     c_bands      :    122.66s CPU    172.01s WALL (      16 calls)
     sum_band     :     21.46s CPU     20.56s WALL (      16 calls)
                                       20.56s GPU  (      16 calls)
     v_of_rho     :     54.35s CPU     16.44s WALL (      16 calls)
     mix_rho      :      6.30s CPU      4.85s WALL (      16 calls)

     Called by c_bands:
     init_us_2    :      2.33s CPU      3.06s WALL (     280 calls)
                                        3.06s GPU  (     280 calls)
     cegterg      :     81.63s CPU    128.49s WALL (     128 calls)

     Called by *egterg:
     cdiaghg      :     13.56s CPU     25.04s WALL (     659 calls)
                                       25.00s GPU  (     659 calls)
     h_psi        :     55.73s CPU     74.95s WALL (     675 calls)
                                       74.50s GPU  (     675 calls)
     g_psi        :      0.00s CPU      0.37s WALL (     539 calls)
                                        0.36s GPU  (     539 calls)

     Called by h_psi:
     h_psi:calbec :      0.31s CPU     10.06s WALL (     675 calls)
                                       10.05s GPU  (     675 calls)
     vloc_psi     :     40.54s CPU     54.93s WALL (     675 calls)
                                       54.00s GPU  (     675 calls)
     add_vuspsi   :      0.34s CPU      9.87s WALL (     675 calls)
                                        9.86s GPU  (     675 calls)

     General routines
     calbec       :      0.31s CPU      0.41s WALL (     715 calls)
     fft          :     25.51s CPU      6.52s WALL (     185 calls)
                                        0.00s GPU  (       6 calls)
     ffts         :      2.64s CPU      0.68s WALL (      16 calls)
     fftw         :      0.61s CPU     63.48s WALL (   10656 calls)
                                       47.48s GPU  (   10656 calls)
 
     Parallel routines
 
     PWSCF        :   4m23.29s CPU   4m25.65s WALL

 
   This run was terminated on:  22:39:46  22Apr2021            

=------------------------------------------------------------------------------=
   JOB DONE.
=------------------------------------------------------------------------------=
