
     Program PWSCF v.6.7MaX starts on 23Apr2021 at  0:19:45 

     This program is part of the open-source Quantum ESPRESSO suite
     for quantum simulation of materials; please cite
         "P. Giannozzi et al., J. Phys.:Condens. Matter 21 395502 (2009);
         "P. Giannozzi et al., J. Phys.:Condens. Matter 29 465901 (2017);
         "P. Giannozzi et al., J. Chem. Phys. 152 154105 (2020);
          URL http://www.quantum-espresso.org", 
     in publications or presentations arising from this work. More details at
     http://www.quantum-espresso.org/quote

     Parallel version (MPI & OpenMP), running on      16 processor cores
     Number of MPI processes:                 4
     Threads/MPI process:                     4

     MPI processes distributed on     1 nodes
     K-points division:     npool     =       4
     Reading input from ESP_77.pwi
Warning: card &CELL ignored
Warning: card / ignored

     Current dimensions of program PWSCF are:
     Max number of different atomic species (ntypx) = 10
     Max number of k-points (npk) =  40000
     Max angular momentum in pseudopotentials (lmaxx) =  3
     Message from routine read_pp_mesh:
     mesh size missing, using the one in header
     Message from routine read_pp_mesh:
     mesh size missing, using the one in header
     Message from routine read_pp_mesh:
     mesh size missing, using the one in header

     Subspace diagonalization in iterative solution of the eigenvalue problem:
     a serial algorithm will be used

 
     G-vector sticks info
     --------------------
     sticks:   dense  smooth     PW     G-vecs:    dense   smooth      PW
     Sum       12589   12589   3289              1061107  1061107  140905
 
     Using Slab Decomposition
 


     bravais-lattice index     =            0
     lattice parameter (alat)  =      23.7585  a.u.
     unit-cell volume          =   13410.8736 (a.u.)^3
     number of atoms/cell      =           40
     number of atomic types    =            3
     number of electrons       =       352.00
     number of Kohn-Sham states=          176
     kinetic-energy cutoff     =      70.0000  Ry
     charge density cutoff     =     280.0000  Ry
     scf convergence threshold =      1.0E-10
     mixing beta               =       0.7000
     number of iterations used =            8  plain     mixing
     Exchange-correlation= PBESOL
                           (   1   4  10   8   0   0   0)

     GPU acceleration is ACTIVE.


     celldm(1)=  23.758500  celldm(2)=   0.000000  celldm(3)=   0.000000
     celldm(4)=   0.000000  celldm(5)=   0.000000  celldm(6)=   0.000000

     crystal axes: (cart. coord. in units of alat)
               a(1) = (   1.000000   0.000000   0.000000 )  
               a(2) = (   0.000000   1.000000   0.000000 )  
               a(3) = (   0.000000   0.000000   1.000000 )  

     reciprocal axes: (cart. coord. in units 2 pi/alat)
               b(1) = (  1.000000  0.000000  0.000000 )  
               b(2) = (  0.000000  1.000000  0.000000 )  
               b(3) = (  0.000000  0.000000  1.000000 )  


     PseudoPot. # 1 for Cs read from file:
     /m100/home/userexternal/lmonacel/espresso/pseudo/Cs-nc-pbesol.upf
     MD5 check sum: 9d2f2206a14dc5b3b3f3fbfae186bed4
     Pseudo is Norm-conserving + core correction, Zval =  9.0
     Generated using ONCVPSP code by D. R. Hamann
     Using radial grid of 2384 points,  8 beta functions with: 
                l(1) =   0
                l(2) =   0
                l(3) =   1
                l(4) =   1
                l(5) =   2
                l(6) =   2
                l(7) =   3
                l(8) =   3

     PseudoPot. # 2 for Sn read from file:
     /m100/home/userexternal/lmonacel/espresso/pseudo/Sn-nc-pbesol.upf
     MD5 check sum: c2995d571af40102bfea7461443d92cf
     Pseudo is Norm-conserving + core correction, Zval = 14.0
     Generated using ONCVPSP code by D. R. Hamann
     Using radial grid of 1628 points,  6 beta functions with: 
                l(1) =   0
                l(2) =   0
                l(3) =   1
                l(4) =   1
                l(5) =   2
                l(6) =   2

     PseudoPot. # 3 for I  read from file:
     /m100/home/userexternal/lmonacel/espresso/pseudo/I-nc-pbesol.upf
     MD5 check sum: 80ed5ceb2eb9c553cfb6760a299d9c5b
     Pseudo is Norm-conserving + core correction, Zval =  7.0
     Generated using ONCVPSP code by D. R. Hamann
     Using radial grid of 1182 points,  6 beta functions with: 
                l(1) =   0
                l(2) =   0
                l(3) =   1
                l(4) =   1
                l(5) =   2
                l(6) =   2

     atomic species   valence    mass     pseudopotential
        Cs             9.00   132.90545     Cs( 1.00)
        Sn            14.00   118.71000     Sn( 1.00)
        I              7.00   126.90447     I ( 1.00)

     No symmetry found



   Cartesian axes

     site n.     atom                  positions (alat units)
         1           Cs  tau(   1) = (   0.2581898   0.2497114   0.2450463  )
         2           Sn  tau(   2) = (  -0.0078627  -0.0094866  -0.0089427  )
         3           I   tau(   3) = (   0.2608898   0.0024417  -0.0315649  )
         4           I   tau(   4) = (   0.0358211  -0.0095646   0.2370003  )
         5           I   tau(   5) = (   0.0042878   0.2549290  -0.0063966  )
         6           Cs  tau(   6) = (   0.2232993   0.2446502   0.7669069  )
         7           Sn  tau(   7) = (  -0.0217026   0.0270001   0.4764472  )
         8           I   tau(   8) = (   0.2417413  -0.0120798   0.5041169  )
         9           I   tau(   9) = (  -0.0085702   0.0053820   0.7547732  )
        10           I   tau(  10) = (   0.0122026   0.2534020   0.4675613  )
        11           Cs  tau(  11) = (   0.2672116   0.7425050   0.2503538  )
        12           Sn  tau(  12) = (   0.0035850   0.4938237   0.0037274  )
        13           I   tau(  13) = (   0.2605335   0.5180649  -0.0067699  )
        14           I   tau(  14) = (   0.0213796   0.4795208   0.2530667  )
        15           I   tau(  15) = (  -0.0146939   0.7469844  -0.0132202  )
        16           Cs  tau(  16) = (   0.2169789   0.7334026   0.7686156  )
        17           Sn  tau(  17) = (   0.0063770   0.5143133   0.4970695  )
        18           I   tau(  18) = (   0.2491932   0.5183868   0.5392638  )
        19           I   tau(  19) = (  -0.0226762   0.4809366   0.7607999  )
        20           I   tau(  20) = (  -0.0086114   0.7580729   0.5164419  )
        21           Cs  tau(  21) = (   0.7136930   0.2385880   0.2523963  )
        22           Sn  tau(  22) = (   0.5081904  -0.0317479   0.0029289  )
        23           I   tau(  23) = (   0.7486521   0.0168847  -0.0257111  )
        24           I   tau(  24) = (   0.5301025   0.0085716   0.2479987  )
        25           I   tau(  25) = (   0.5156714   0.2339172  -0.0105031  )
        26           Cs  tau(  26) = (   0.7433276   0.2673286   0.7684084  )
        27           Sn  tau(  27) = (   0.4803557   0.0086701   0.5019472  )
        28           I   tau(  28) = (   0.7484525   0.0624401   0.4841605  )
        29           I   tau(  29) = (   0.5276619  -0.0215446   0.7410568  )
        30           I   tau(  30) = (   0.4731606   0.2631447   0.4976553  )
        31           Cs  tau(  31) = (   0.7307731   0.7472351   0.2426767  )
        32           Sn  tau(  32) = (   0.5111281   0.4804400   0.0162153  )
        33           I   tau(  33) = (   0.7587302   0.4783454   0.0179324  )
        34           I   tau(  34) = (   0.5045931   0.5010022   0.2644673  )
        35           I   tau(  35) = (   0.4982088   0.7332591   0.0141549  )
        36           Cs  tau(  36) = (   0.7410973   0.7568871   0.7212507  )
        37           Sn  tau(  37) = (   0.4901890   0.5062499   0.5335207  )
        38           I   tau(  38) = (   0.7486951   0.4804570   0.4818288  )
        39           I   tau(  39) = (   0.5179895   0.5084552   0.7596233  )
        40           I   tau(  40) = (   0.5348201   0.7692577   0.5144349  )

     number of k points=    32
                       cart. coord. in units 2pi/alat
        k(    1) = (   0.1250000   0.1250000   0.1250000), wk =   0.0625000
        k(    2) = (   0.1250000   0.1250000   0.3750000), wk =   0.0625000
        k(    3) = (   0.1250000   0.3750000   0.3750000), wk =   0.0625000
        k(    4) = (   0.3750000   0.3750000   0.3750000), wk =   0.0625000
        k(    5) = (  -0.1250000  -0.1250000   0.1250000), wk =   0.0625000
        k(    6) = (  -0.1250000   0.1250000  -0.1250000), wk =   0.0625000
        k(    7) = (   0.1250000  -0.1250000  -0.1250000), wk =   0.0625000
        k(    8) = (  -0.1250000  -0.1250000   0.3750000), wk =   0.0625000
        k(    9) = (  -0.1250000   0.1250000  -0.3750000), wk =   0.0625000
        k(   10) = (   0.1250000  -0.1250000  -0.3750000), wk =   0.0625000
        k(   11) = (   0.3750000  -0.1250000   0.1250000), wk =   0.0625000
        k(   12) = (  -0.3750000  -0.1250000  -0.1250000), wk =   0.0625000
        k(   13) = (   0.3750000   0.1250000  -0.1250000), wk =   0.0625000
        k(   14) = (  -0.3750000   0.1250000   0.1250000), wk =   0.0625000
        k(   15) = (  -0.1250000   0.3750000   0.1250000), wk =   0.0625000
        k(   16) = (  -0.1250000  -0.3750000  -0.1250000), wk =   0.0625000
        k(   17) = (   0.1250000   0.3750000  -0.1250000), wk =   0.0625000
        k(   18) = (   0.1250000  -0.3750000   0.1250000), wk =   0.0625000
        k(   19) = (  -0.1250000  -0.3750000   0.3750000), wk =   0.0625000
        k(   20) = (  -0.1250000   0.3750000  -0.3750000), wk =   0.0625000
        k(   21) = (   0.1250000  -0.3750000  -0.3750000), wk =   0.0625000
        k(   22) = (   0.3750000   0.1250000  -0.3750000), wk =   0.0625000
        k(   23) = (  -0.3750000  -0.1250000  -0.3750000), wk =   0.0625000
        k(   24) = (   0.3750000  -0.1250000   0.3750000), wk =   0.0625000
        k(   25) = (  -0.3750000   0.1250000   0.3750000), wk =   0.0625000
        k(   26) = (   0.3750000  -0.3750000   0.1250000), wk =   0.0625000
        k(   27) = (  -0.3750000  -0.3750000  -0.1250000), wk =   0.0625000
        k(   28) = (   0.3750000   0.3750000  -0.1250000), wk =   0.0625000
        k(   29) = (  -0.3750000   0.3750000   0.1250000), wk =   0.0625000
        k(   30) = (  -0.3750000  -0.3750000   0.3750000), wk =   0.0625000
        k(   31) = (  -0.3750000   0.3750000  -0.3750000), wk =   0.0625000
        k(   32) = (   0.3750000  -0.3750000  -0.3750000), wk =   0.0625000

     Dense  grid:  1061107 G-vectors     FFT dimensions: ( 128, 128, 128)

     Estimated max dynamical RAM per process >       6.82 GB

     Estimated total dynamical RAM >      27.27 GB

     Initial potential from superposition of free atoms

     starting charge  351.69472, renormalised to  352.00000
     Starting wfcs are  208 randomized atomic wfcs

     total cpu time spent up to now is       17.9 secs

     Self-consistent Calculation

     iteration #  1     ecut=    70.00 Ry     beta= 0.70
     Davidson diagonalization with overlap
     ethr =  1.00E-02,  avg # of iterations =  2.0

     Threshold (ethr) on eigenvalues was too large:
     Diagonalizing with lowered threshold

     Davidson diagonalization with overlap
     ethr =  2.17E-04,  avg # of iterations =  4.0

     total cpu time spent up to now is       39.1 secs

     total energy              =   -2256.03143452 Ry
     estimated scf accuracy    <       0.66273059 Ry

     iteration #  2     ecut=    70.00 Ry     beta= 0.70
     Davidson diagonalization with overlap
     ethr =  1.88E-04,  avg # of iterations =  3.3

     total cpu time spent up to now is       52.0 secs

     total energy              =   -2256.23150754 Ry
     estimated scf accuracy    <       0.32528588 Ry

     iteration #  3     ecut=    70.00 Ry     beta= 0.70
     Davidson diagonalization with overlap
     ethr =  9.24E-05,  avg # of iterations =  2.8

     total cpu time spent up to now is       63.9 secs

     total energy              =   -2256.29471316 Ry
     estimated scf accuracy    <       0.02382790 Ry

     iteration #  4     ecut=    70.00 Ry     beta= 0.70
     Davidson diagonalization with overlap
     ethr =  6.77E-06,  avg # of iterations =  4.1

     total cpu time spent up to now is       77.4 secs

     total energy              =   -2256.30291106 Ry
     estimated scf accuracy    <       0.00567094 Ry

     iteration #  5     ecut=    70.00 Ry     beta= 0.70
     Davidson diagonalization with overlap
     ethr =  1.61E-06,  avg # of iterations =  3.1

     total cpu time spent up to now is       89.5 secs

     total energy              =   -2256.30402716 Ry
     estimated scf accuracy    <       0.00117377 Ry

     iteration #  6     ecut=    70.00 Ry     beta= 0.70
     Davidson diagonalization with overlap
     ethr =  3.33E-07,  avg # of iterations =  3.3

     total cpu time spent up to now is      101.8 secs

     total energy              =   -2256.30424238 Ry
     estimated scf accuracy    <       0.00013120 Ry

     iteration #  7     ecut=    70.00 Ry     beta= 0.70
     Davidson diagonalization with overlap
     ethr =  3.73E-08,  avg # of iterations =  5.0

     total cpu time spent up to now is      116.1 secs

     total energy              =   -2256.30429583 Ry
     estimated scf accuracy    <       0.00002064 Ry

     iteration #  8     ecut=    70.00 Ry     beta= 0.70
     Davidson diagonalization with overlap
     ethr =  5.86E-09,  avg # of iterations =  4.1

     total cpu time spent up to now is      129.6 secs

     total energy              =   -2256.30430340 Ry
     estimated scf accuracy    <       0.00000441 Ry

     iteration #  9     ecut=    70.00 Ry     beta= 0.70
     Davidson diagonalization with overlap
     ethr =  1.25E-09,  avg # of iterations =  4.0

     total cpu time spent up to now is      143.0 secs

     total energy              =   -2256.30430479 Ry
     estimated scf accuracy    <       0.00000073 Ry

     iteration # 10     ecut=    70.00 Ry     beta= 0.70
     Davidson diagonalization with overlap
     ethr =  2.06E-10,  avg # of iterations =  3.4

     total cpu time spent up to now is      157.1 secs

     total energy              =   -2256.30430505 Ry
     estimated scf accuracy    <       0.00000017 Ry

     iteration # 11     ecut=    70.00 Ry     beta= 0.70
     Davidson diagonalization with overlap
     ethr =  4.77E-11,  avg # of iterations =  5.1

     total cpu time spent up to now is      171.7 secs

     total energy              =   -2256.30430513 Ry
     estimated scf accuracy    <       0.00000002 Ry

     iteration # 12     ecut=    70.00 Ry     beta= 0.70
     Davidson diagonalization with overlap
     ethr =  6.72E-12,  avg # of iterations =  6.1

     total cpu time spent up to now is      188.6 secs

     total energy              =   -2256.30430514 Ry
     estimated scf accuracy    <       0.00000001 Ry

     iteration # 13     ecut=    70.00 Ry     beta= 0.70
     Davidson diagonalization with overlap
     ethr =  3.18E-12,  avg # of iterations =  3.4

     total cpu time spent up to now is      201.4 secs

     total energy              =   -2256.30430515 Ry
     estimated scf accuracy    <          7.9E-10 Ry

     iteration # 14     ecut=    70.00 Ry     beta= 0.70
     Davidson diagonalization with overlap
     ethr =  2.24E-13,  avg # of iterations =  6.4

     total cpu time spent up to now is      219.1 secs

     total energy              =   -2256.30430515 Ry
     estimated scf accuracy    <          2.3E-10 Ry

     iteration # 15     ecut=    70.00 Ry     beta= 0.70
     Davidson diagonalization with overlap
     ethr =  1.00E-13,  avg # of iterations =  3.3

     total cpu time spent up to now is      231.4 secs

     End of self-consistent calculation

          k = 0.1250 0.1250 0.1250 (132670 PWs)   bands (ev):

   -18.6196 -18.5666 -18.4755 -18.3775 -18.3183 -18.3155 -18.3147 -18.3104
   -18.3016 -18.2980 -18.2761 -18.2756 -18.2682 -18.2668 -18.2642 -18.2601
   -18.2579 -18.2547 -18.2540 -18.2497 -18.2465 -18.2441 -18.2417 -18.2365
   -18.2358 -18.2332 -18.2069 -18.2004 -18.1971 -18.1895 -18.1861 -18.1780
   -18.1750 -18.1658 -18.1643 -18.1572 -18.1571 -18.1548 -18.1521 -18.1445
   -18.1392 -18.1325 -18.1265 -18.1252 -18.1221 -18.1139 -18.1022 -18.0990
    -9.4677  -9.3391  -9.2640  -9.2064  -9.1747  -9.1143  -9.0569  -8.9762
    -8.9464  -8.9348  -8.9157  -8.8921  -8.8790  -8.8531  -8.8234  -8.8019
    -8.7709  -8.7575  -8.7319  -8.6832  -8.6406  -8.6147  -8.5513  -8.4551
    -5.3842  -5.3739  -5.3524  -5.3325  -5.3201  -5.3129  -5.2387  -5.2332
    -5.2249  -5.1456  -5.1421  -5.1355  -5.0991  -5.0875  -5.0810  -5.0322
    -5.0228  -5.0090  -4.9953  -4.9845  -4.9755  -4.9386  -4.9352  -4.9068
    -4.4382  -3.9819  -3.8708  -3.8508  -3.4240  -3.3523  -3.2746  -2.7580
    -0.7824  -0.7177  -0.6330  -0.5947  -0.5655  -0.5277  -0.4833  -0.3967
    -0.3609  -0.3089  -0.2553  -0.1733   0.4305   0.4677   0.5261   0.6054
     0.6373   0.6647   0.7368   0.7665   0.8321   0.8824   0.9280   0.9401
     0.9853   1.0177   1.0592   1.1040   1.1336   1.1518   1.1843   1.1993
     1.2184   1.2255   1.2575   1.2927   1.3155   1.3292   1.3476   1.3677
     1.4067   1.4225   1.4534   1.4708   1.4997   1.5108   1.5567   1.5759
     1.6037   1.6174   1.6292   1.6547   1.6714   1.6880   1.7148   1.7251
     1.7640   1.7961   1.8304   1.9898   2.0082   2.0579   2.1102   2.1185
     2.1396   2.2167   2.2697   2.2987   2.6794   2.7149   2.7924   3.1404

          k = 0.1250 0.1250 0.3750 (132608 PWs)   bands (ev):

   -18.6196 -18.5666 -18.4755 -18.3775 -18.3183 -18.3155 -18.3147 -18.3104
   -18.3016 -18.2980 -18.2761 -18.2756 -18.2682 -18.2668 -18.2642 -18.2601
   -18.2579 -18.2547 -18.2540 -18.2497 -18.2465 -18.2441 -18.2417 -18.2365
   -18.2358 -18.2332 -18.2069 -18.2004 -18.1971 -18.1895 -18.1861 -18.1780
   -18.1750 -18.1658 -18.1643 -18.1572 -18.1571 -18.1548 -18.1521 -18.1445
   -18.1392 -18.1325 -18.1265 -18.1252 -18.1221 -18.1139 -18.1022 -18.0990
    -9.4544  -9.3564  -9.2501  -9.2011  -9.1865  -9.1137  -9.0792  -8.9867
    -8.9511  -8.9271  -8.9129  -8.8872  -8.8808  -8.8533  -8.8273  -8.7913
    -8.7540  -8.7464  -8.7184  -8.6892  -8.6455  -8.6251  -8.5566  -8.4569
    -5.3842  -5.3738  -5.3523  -5.3324  -5.3201  -5.3128  -5.2386  -5.2331
    -5.2247  -5.1457  -5.1421  -5.1356  -5.0991  -5.0875  -5.0812  -5.0321
    -5.0228  -5.0091  -4.9948  -4.9844  -4.9756  -4.9392  -4.9358  -4.9069
    -4.3101  -4.1084  -3.7778  -3.7334  -3.5859  -3.5136  -3.1723  -2.9703
    -0.7787  -0.6399  -0.6027  -0.5691  -0.5290  -0.4842  -0.3904  -0.3163
    -0.1504  -0.0128   0.0554   0.1087   0.4157   0.4531   0.4979   0.5268
     0.5583   0.5960   0.6386   0.6620   0.7174   0.7526   0.7865   0.8505
     0.8839   0.8952   0.9536   1.0117   1.1091   1.1245   1.1424   1.1787
     1.2031   1.2281   1.2521   1.2960   1.3146   1.3253   1.3476   1.3703
     1.4270   1.4502   1.4600   1.4807   1.5096   1.5344   1.5666   1.5952
     1.6150   1.6264   1.6407   1.6721   1.6981   1.7215   1.7319   1.7649
     1.7900   1.8034   1.8431   1.8875   1.9645   2.0068   2.0226   2.0957
     2.1048   2.1229   2.2703   2.3018   2.4496   2.4649   2.7579   2.8983

          k = 0.1250 0.3750 0.3750 (132616 PWs)   bands (ev):

   -18.6196 -18.5666 -18.4755 -18.3775 -18.3183 -18.3155 -18.3147 -18.3104
   -18.3016 -18.2980 -18.2761 -18.2756 -18.2682 -18.2668 -18.2642 -18.2601
   -18.2579 -18.2547 -18.2540 -18.2497 -18.2465 -18.2441 -18.2417 -18.2365
   -18.2358 -18.2332 -18.2069 -18.2004 -18.1971 -18.1895 -18.1861 -18.1780
   -18.1749 -18.1658 -18.1643 -18.1572 -18.1571 -18.1548 -18.1521 -18.1445
   -18.1392 -18.1325 -18.1265 -18.1252 -18.1221 -18.1139 -18.1022 -18.0990
    -9.4485  -9.3442  -9.2659  -9.2016  -9.1750  -9.1328  -9.0968  -8.9887
    -8.9597  -8.9314  -8.9071  -8.8912  -8.8808  -8.8369  -8.7995  -8.7790
    -8.7506  -8.7443  -8.7141  -8.6949  -8.6626  -8.6304  -8.5568  -8.4583
    -5.3841  -5.3739  -5.3523  -5.3324  -5.3199  -5.3128  -5.2388  -5.2333
    -5.2249  -5.1455  -5.1419  -5.1353  -5.0991  -5.0879  -5.0808  -5.0321
    -5.0228  -5.0091  -4.9952  -4.9846  -4.9755  -4.9390  -4.9357  -4.9067
    -4.1852  -4.0341  -3.8728  -3.7402  -3.6130  -3.4779  -3.3071  -3.1808
    -0.6357  -0.5984  -0.5516  -0.4623  -0.3384  -0.2474  -0.1875  -0.0967
    -0.0253   0.0243   0.0920   0.2073   0.2989   0.4091   0.4652   0.4968
     0.5182   0.5559   0.6009   0.6159   0.6430   0.6583   0.7058   0.7705
     0.8214   0.8656   0.9032   0.9672   0.9834   1.0248   1.0688   1.1301
     1.1586   1.1787   1.2033   1.2448   1.2748   1.3129   1.3240   1.3541
     1.3949   1.4432   1.4781   1.4992   1.5221   1.5540   1.5877   1.6142
     1.6515   1.6763   1.6905   1.6967   1.7140   1.7463   1.7573   1.7840
     1.8123   1.8283   1.8599   1.8748   1.9141   1.9590   1.9949   2.0212
     2.0660   2.0875   2.1182   2.2314   2.2916   2.4379   2.4804   2.6504

          k = 0.3750 0.3750 0.3750 (132612 PWs)   bands (ev):

   -18.6196 -18.5666 -18.4755 -18.3775 -18.3183 -18.3155 -18.3147 -18.3104
   -18.3016 -18.2980 -18.2760 -18.2756 -18.2682 -18.2668 -18.2643 -18.2601
   -18.2579 -18.2547 -18.2540 -18.2497 -18.2465 -18.2441 -18.2417 -18.2365
   -18.2358 -18.2332 -18.2069 -18.2004 -18.1971 -18.1895 -18.1861 -18.1780
   -18.1750 -18.1658 -18.1643 -18.1572 -18.1571 -18.1548 -18.1521 -18.1445
   -18.1392 -18.1325 -18.1265 -18.1252 -18.1221 -18.1139 -18.1023 -18.0990
    -9.4446  -9.3348  -9.2688  -9.1973  -9.1694  -9.1508  -9.1103  -9.0083
    -8.9691  -8.9429  -8.9036  -8.8814  -8.8506  -8.8123  -8.7965  -8.7797
    -8.7532  -8.7509  -8.7191  -8.6968  -8.6634  -8.6176  -8.5704  -8.4591
    -5.3840  -5.3738  -5.3522  -5.3326  -5.3202  -5.3130  -5.2387  -5.2333
    -5.2247  -5.1455  -5.1420  -5.1353  -5.0991  -5.0879  -5.0809  -5.0322
    -5.0225  -5.0088  -4.9950  -4.9846  -4.9755  -4.9391  -4.9357  -4.9067
    -4.0661  -3.9738  -3.8157  -3.7088  -3.6736  -3.5748  -3.4424  -3.3548
    -0.4670  -0.4142  -0.3301  -0.2788  -0.2064  -0.1702  -0.1133  -0.0683
     0.0102   0.0555   0.1201   0.2610   0.2781   0.3553   0.3843   0.4468
     0.4727   0.5125   0.5457   0.5710   0.5825   0.6312   0.6811   0.7146
     0.8511   0.8961   0.9020   0.9448   0.9601   0.9881   1.0468   1.0545
     1.0826   1.1149   1.1506   1.1860   1.2020   1.2477   1.2749   1.3046
     1.3854   1.4243   1.4758   1.5249   1.5459   1.5841   1.6039   1.6524
     1.6709   1.6783   1.6906   1.7422   1.7631   1.7727   1.7849   1.8142
     1.8204   1.8343   1.8700   1.8863   1.9033   1.9282   1.9692   2.0094
     2.0214   2.0474   2.0608   2.0929   2.1925   2.2080   2.2697   2.3813

          k =-0.1250-0.1250 0.1250 (132670 PWs)   bands (ev):

   -18.6196 -18.5666 -18.4755 -18.3775 -18.3183 -18.3156 -18.3147 -18.3104
   -18.3016 -18.2980 -18.2761 -18.2756 -18.2682 -18.2668 -18.2642 -18.2601
   -18.2579 -18.2547 -18.2540 -18.2497 -18.2465 -18.2441 -18.2417 -18.2365
   -18.2358 -18.2332 -18.2069 -18.2004 -18.1971 -18.1895 -18.1861 -18.1780
   -18.1750 -18.1658 -18.1643 -18.1572 -18.1571 -18.1548 -18.1521 -18.1445
   -18.1392 -18.1325 -18.1265 -18.1252 -18.1221 -18.1139 -18.1023 -18.0990
    -9.4693  -9.3261  -9.2830  -9.1980  -9.1690  -9.1244  -9.0575  -8.9717
    -8.9488  -8.9315  -8.9065  -8.8986  -8.8811  -8.8513  -8.8293  -8.8003
    -8.7732  -8.7499  -8.7364  -8.6850  -8.6396  -8.6136  -8.5518  -8.4550
    -5.3842  -5.3739  -5.3524  -5.3325  -5.3201  -5.3129  -5.2386  -5.2332
    -5.2249  -5.1455  -5.1420  -5.1356  -5.0991  -5.0874  -5.0811  -5.0322
    -5.0227  -5.0090  -4.9953  -4.9844  -4.9756  -4.9387  -4.9352  -4.9067
    -4.4409  -3.9460  -3.8992  -3.8609  -3.3937  -3.3398  -3.3173  -2.7525
    -0.7775  -0.7312  -0.6315  -0.5957  -0.5476  -0.5205  -0.4605  -0.4137
    -0.3591  -0.3245  -0.2654  -0.1828   0.4285   0.4739   0.5229   0.6013
     0.6383   0.6715   0.7321   0.7724   0.8287   0.8886   0.9227   0.9415
     1.0041   1.0235   1.0491   1.1057   1.1167   1.1490   1.1763   1.2001
     1.2268   1.2427   1.2693   1.2901   1.3058   1.3261   1.3572   1.3759
     1.4108   1.4276   1.4443   1.4750   1.4929   1.5278   1.5519   1.5700
     1.5961   1.6134   1.6299   1.6457   1.6662   1.6901   1.7130   1.7236
     1.7498   1.7945   1.8275   1.9856   2.0222   2.0530   2.1160   2.1292
     2.1414   2.2244   2.2733   2.2942   2.6869   2.7189   2.7596   3.1371

          k =-0.1250 0.1250-0.1250 (132670 PWs)   bands (ev):

   -18.6196 -18.5666 -18.4755 -18.3775 -18.3183 -18.3156 -18.3147 -18.3104
   -18.3016 -18.2980 -18.2761 -18.2756 -18.2682 -18.2668 -18.2642 -18.2601
   -18.2579 -18.2547 -18.2540 -18.2497 -18.2465 -18.2441 -18.2417 -18.2365
   -18.2358 -18.2332 -18.2069 -18.2004 -18.1971 -18.1895 -18.1861 -18.1780
   -18.1750 -18.1658 -18.1643 -18.1572 -18.1571 -18.1548 -18.1521 -18.1445
   -18.1392 -18.1325 -18.1265 -18.1252 -18.1221 -18.1139 -18.1023 -18.0990
    -9.4689  -9.3287  -9.2819  -9.1976  -9.1614  -9.1313  -9.0574  -8.9759
    -8.9506  -8.9262  -8.9086  -8.8946  -8.8819  -8.8511  -8.8285  -8.7939
    -8.7769  -8.7600  -8.7321  -8.6830  -8.6400  -8.6137  -8.5517  -8.4551
    -5.3842  -5.3739  -5.3524  -5.3325  -5.3200  -5.3130  -5.2387  -5.2333
    -5.2248  -5.1456  -5.1420  -5.1355  -5.0991  -5.0875  -5.0810  -5.0321
    -5.0227  -5.0092  -4.9954  -4.9844  -4.9755  -4.9386  -4.9353  -4.9067
    -4.4396  -3.9637  -3.8930  -3.8490  -3.3900  -3.3725  -3.2880  -2.7545
    -0.7663  -0.7061  -0.6598  -0.6273  -0.5840  -0.4925  -0.4486  -0.4068
    -0.3587  -0.3088  -0.2654  -0.1790   0.4291   0.4723   0.5211   0.6060
     0.6482   0.6671   0.7397   0.7722   0.8089   0.8774   0.9137   0.9502
     1.0026   1.0318   1.0671   1.0991   1.1103   1.1428   1.1626   1.2170
     1.2326   1.2491   1.2679   1.2949   1.3135   1.3328   1.3495   1.3775
     1.4066   1.4176   1.4388   1.4735   1.4925   1.5256   1.5318   1.5624
     1.5787   1.6091   1.6388   1.6567   1.6663   1.6889   1.7264   1.7329
     1.7567   1.7834   1.8315   2.0015   2.0237   2.0470   2.1150   2.1203
     2.1403   2.2154   2.2605   2.3213   2.6759   2.7131   2.7793   3.1541

          k = 0.1250-0.1250-0.1250 (132670 PWs)   bands (ev):

   -18.6196 -18.5666 -18.4755 -18.3775 -18.3183 -18.3156 -18.3147 -18.3104
   -18.3016 -18.2980 -18.2761 -18.2756 -18.2682 -18.2668 -18.2642 -18.2601
   -18.2579 -18.2547 -18.2540 -18.2497 -18.2465 -18.2441 -18.2417 -18.2365
   -18.2358 -18.2332 -18.2069 -18.2004 -18.1971 -18.1895 -18.1861 -18.1780
   -18.1750 -18.1658 -18.1643 -18.1572 -18.1571 -18.1548 -18.1521 -18.1445
   -18.1392 -18.1325 -18.1265 -18.1252 -18.1221 -18.1139 -18.1023 -18.0990
    -9.4688  -9.3306  -9.2792  -9.1927  -9.1708  -9.1257  -9.0627  -8.9708
    -8.9426  -8.9366  -8.9060  -8.9007  -8.8805  -8.8483  -8.8216  -8.8059
    -8.7728  -8.7574  -8.7341  -8.6822  -8.6401  -8.6144  -8.5514  -8.4550
    -5.3843  -5.3739  -5.3524  -5.3325  -5.3200  -5.3130  -5.2387  -5.2333
    -5.2248  -5.1456  -5.1420  -5.1355  -5.0991  -5.0875  -5.0809  -5.0322
    -5.0226  -5.0092  -4.9954  -4.9844  -4.9755  -4.9386  -4.9352  -4.9068
    -4.4407  -3.9427  -3.9117  -3.8516  -3.3933  -3.3529  -3.3041  -2.7539
    -0.7673  -0.7209  -0.6429  -0.5855  -0.5464  -0.5304  -0.5002  -0.4007
    -0.3595  -0.3299  -0.2475  -0.1751   0.4287   0.4710   0.5242   0.6078
     0.6330   0.6678   0.7354   0.7670   0.8195   0.8538   0.9444   0.9678
     1.0029   1.0278   1.0694   1.0977   1.1337   1.1412   1.1706   1.2046
     1.2134   1.2474   1.2649   1.2787   1.3111   1.3378   1.3533   1.3842
     1.4091   1.4261   1.4470   1.4689   1.4827   1.5111   1.5346   1.5659
     1.5930   1.6137   1.6351   1.6463   1.6659   1.6826   1.7194   1.7423
     1.7612   1.7954   1.8272   1.9948   2.0169   2.0527   2.1089   2.1317
     2.1477   2.2274   2.2673   2.2910   2.6797   2.7086   2.7877   3.1286

          k =-0.1250-0.1250 0.3750 (132608 PWs)   bands (ev):

   -18.6196 -18.5666 -18.4755 -18.3775 -18.3183 -18.3155 -18.3147 -18.3104
   -18.3016 -18.2980 -18.2761 -18.2756 -18.2682 -18.2668 -18.2642 -18.2601
   -18.2579 -18.2547 -18.2540 -18.2497 -18.2465 -18.2441 -18.2417 -18.2365
   -18.2358 -18.2332 -18.2069 -18.2004 -18.1971 -18.1895 -18.1861 -18.1780
   -18.1750 -18.1658 -18.1643 -18.1572 -18.1571 -18.1548 -18.1521 -18.1445
   -18.1392 -18.1325 -18.1265 -18.1252 -18.1221 -18.1139 -18.1022 -18.0990
    -9.4567  -9.3463  -9.2682  -9.1974  -9.1665  -9.1336  -9.0765  -8.9849
    -8.9473  -8.9274  -8.9088  -8.8887  -8.8826  -8.8528  -8.8292  -8.7949
    -8.7547  -8.7360  -8.7247  -8.6921  -8.6442  -8.6237  -8.5571  -8.4567
    -5.3841  -5.3739  -5.3524  -5.3324  -5.3201  -5.3128  -5.2386  -5.2331
    -5.2248  -5.1456  -5.1420  -5.1356  -5.0992  -5.0874  -5.0812  -5.0321
    -5.0228  -5.0091  -4.9948  -4.9843  -4.9757  -4.9393  -4.9358  -4.9067
    -4.3191  -4.0858  -3.8029  -3.7411  -3.5582  -3.5095  -3.1996  -2.9555
    -0.7772  -0.6492  -0.6077  -0.5451  -0.5289  -0.4738  -0.3965  -0.3125
    -0.1632  -0.0280   0.0506   0.0924   0.4182   0.4572   0.5002   0.5294
     0.5761   0.6150   0.6381   0.6631   0.7073   0.7426   0.8019   0.8256
     0.8727   0.9446   0.9687   0.9900   1.0956   1.1295   1.1399   1.1525
     1.2039   1.2189   1.2658   1.2916   1.3192   1.3307   1.3578   1.3978
     1.4093   1.4460   1.4633   1.4925   1.5185   1.5281   1.5556   1.5901
     1.6118   1.6302   1.6526   1.6664   1.6881   1.7182   1.7358   1.7595
     1.7737   1.8089   1.8404   1.8756   1.9728   1.9846   2.0507   2.0945
     2.1110   2.1387   2.2814   2.2970   2.4305   2.4691   2.7490   2.8954

          k =-0.1250 0.1250-0.3750 (132608 PWs)   bands (ev):

   -18.6196 -18.5666 -18.4755 -18.3775 -18.3183 -18.3155 -18.3147 -18.3104
   -18.3016 -18.2980 -18.2761 -18.2756 -18.2682 -18.2668 -18.2642 -18.2601
   -18.2579 -18.2547 -18.2540 -18.2497 -18.2465 -18.2441 -18.2417 -18.2365
   -18.2358 -18.2332 -18.2069 -18.2004 -18.1971 -18.1895 -18.1861 -18.1780
   -18.1750 -18.1658 -18.1643 -18.1572 -18.1571 -18.1548 -18.1521 -18.1445
   -18.1392 -18.1325 -18.1265 -18.1252 -18.1221 -18.1139 -18.1022 -18.0990
    -9.4557  -9.3520  -9.2570  -9.1976  -9.1813  -9.1208  -9.0811  -8.9852
    -8.9510  -8.9266  -8.9036  -8.8930  -8.8796  -8.8503  -8.8308  -8.7928
    -8.7594  -8.7391  -8.7214  -8.6907  -8.6445  -8.6238  -8.5571  -8.4567
    -5.3842  -5.3738  -5.3524  -5.3324  -5.3200  -5.3129  -5.2386  -5.2332
    -5.2247  -5.1457  -5.1421  -5.1356  -5.0991  -5.0874  -5.0812  -5.0320
    -5.0227  -5.0092  -4.9948  -4.9843  -4.9756  -4.9392  -4.9359  -4.9067
    -4.3133  -4.1022  -3.7753  -3.7471  -3.5594  -3.5293  -3.1818  -2.9634
    -0.7622  -0.6401  -0.6261  -0.5844  -0.5094  -0.4745  -0.4056  -0.3155
    -0.1410  -0.0092   0.0495   0.1004   0.4178   0.4543   0.4962   0.5262
     0.5770   0.6096   0.6275   0.6672   0.7165   0.7547   0.7880   0.8428
     0.8506   0.9236   0.9775   0.9958   1.0632   1.0945   1.1604   1.2007
     1.2157   1.2406   1.2694   1.2837   1.3138   1.3408   1.3529   1.3913
     1.4129   1.4366   1.4614   1.4743   1.4938   1.5303   1.5658   1.5814
     1.6065   1.6325   1.6483   1.6661   1.6949   1.7165   1.7457   1.7623
     1.7805   1.8012   1.8343   1.8958   1.9781   2.0000   2.0269   2.1040
     2.1136   2.1281   2.2753   2.3052   2.4147   2.4917   2.7413   2.9072

          k = 0.1250-0.1250-0.3750 (132608 PWs)   bands (ev):

   -18.6196 -18.5666 -18.4755 -18.3775 -18.3183 -18.3155 -18.3147 -18.3104
   -18.3016 -18.2980 -18.2761 -18.2756 -18.2682 -18.2668 -18.2642 -18.2601
   -18.2579 -18.2547 -18.2540 -18.2497 -18.2465 -18.2441 -18.2417 -18.2365
   -18.2358 -18.2332 -18.2069 -18.2004 -18.1971 -18.1895 -18.1861 -18.1780
   -18.1750 -18.1658 -18.1643 -18.1572 -18.1571 -18.1548 -18.1521 -18.1445
   -18.1392 -18.1325 -18.1265 -18.1252 -18.1221 -18.1139 -18.1022 -18.0990
    -9.4556  -9.3531  -9.2539  -9.1986  -9.1824  -9.1191  -9.0846  -8.9834
    -8.9477  -8.9290  -8.9031  -8.8967  -8.8793  -8.8479  -8.8278  -8.7976
    -8.7561  -8.7420  -8.7209  -8.6891  -8.6447  -8.6248  -8.5567  -8.4567
    -5.3842  -5.3739  -5.3523  -5.3324  -5.3200  -5.3128  -5.2387  -5.2332
    -5.2247  -5.1457  -5.1420  -5.1356  -5.0992  -5.0875  -5.0811  -5.0321
    -5.0227  -5.0092  -4.9948  -4.9843  -4.9756  -4.9392  -4.9358  -4.9069
    -4.3171  -4.0930  -3.7812  -3.7531  -3.5517  -3.5266  -3.1885  -2.9609
    -0.7638  -0.6514  -0.5979  -0.5873  -0.5168  -0.4666  -0.3930  -0.3176
    -0.1710  -0.0219   0.0512   0.1059   0.4146   0.4599   0.4946   0.5413
     0.5591   0.6046   0.6344   0.6732   0.7008   0.7534   0.7838   0.8462
     0.8863   0.9205   0.9701   1.0210   1.0497   1.1183   1.1557   1.1791
     1.2093   1.2336   1.2642   1.2877   1.3205   1.3371   1.3661   1.3881
     1.4061   1.4356   1.4638   1.4733   1.5018   1.5272   1.5580   1.5884
     1.6118   1.6275   1.6468   1.6506   1.7015   1.7156   1.7430   1.7556
     1.7943   1.8019   1.8592   1.8820   1.9616   2.0068   2.0512   2.0896
     2.1034   2.1354   2.2587   2.3062   2.4402   2.4728   2.7601   2.8804

          k = 0.3750-0.1250 0.1250 (132608 PWs)   bands (ev):

   -18.6196 -18.5666 -18.4755 -18.3775 -18.3183 -18.3155 -18.3147 -18.3104
   -18.3016 -18.2980 -18.2760 -18.2756 -18.2682 -18.2668 -18.2643 -18.2601
   -18.2579 -18.2547 -18.2540 -18.2497 -18.2465 -18.2441 -18.2417 -18.2365
   -18.2358 -18.2332 -18.2069 -18.2004 -18.1971 -18.1895 -18.1861 -18.1780
   -18.1750 -18.1658 -18.1643 -18.1572 -18.1571 -18.1548 -18.1521 -18.1445
   -18.1392 -18.1325 -18.1265 -18.1252 -18.1221 -18.1139 -18.1022 -18.0990
    -9.4606  -9.3345  -9.2708  -9.2062  -9.1758  -9.1208  -9.0734  -8.9744
    -8.9639  -8.9378  -8.9113  -8.8953  -8.8667  -8.8324  -8.8192  -8.7936
    -8.7704  -8.7611  -8.7192  -8.6959  -8.6392  -8.6054  -8.5660  -8.4573
    -5.3841  -5.3737  -5.3523  -5.3325  -5.3200  -5.3130  -5.2388  -5.2333
    -5.2248  -5.1455  -5.1420  -5.1355  -5.0991  -5.0875  -5.0809  -5.0324
    -5.0227  -5.0092  -4.9954  -4.9845  -4.9757  -4.9387  -4.9353  -4.9068
    -4.3165  -4.1026  -3.7742  -3.7502  -3.5559  -3.5250  -3.1823  -2.9631
    -0.7550  -0.6809  -0.6248  -0.5590  -0.5456  -0.4027  -0.3584  -0.3223
    -0.1353  -0.0426   0.0037   0.0864   0.4096   0.4549   0.4905   0.5328
     0.5812   0.6101   0.6441   0.6846   0.6963   0.7195   0.7691   0.8137
     0.8641   0.9050   0.9888   1.0344   1.0669   1.1068   1.1449   1.1954
     1.2200   1.2347   1.2693   1.2834   1.3192   1.3464   1.3653   1.3902
     1.4082   1.4366   1.4488   1.4909   1.5111   1.5451   1.5551   1.5883
     1.5981   1.6268   1.6511   1.6642   1.6854   1.7194   1.7489   1.7675
     1.7782   1.8148   1.8459   1.9090   1.9524   1.9984   2.0166   2.0590
     2.1049   2.1334   2.2938   2.3208   2.4358   2.4946   2.7637   2.9170

          k =-0.3750-0.1250-0.1250 (132608 PWs)   bands (ev):

   -18.6196 -18.5666 -18.4755 -18.3775 -18.3183 -18.3155 -18.3147 -18.3104
   -18.3016 -18.2980 -18.2760 -18.2756 -18.2682 -18.2668 -18.2643 -18.2601
   -18.2579 -18.2547 -18.2540 -18.2497 -18.2465 -18.2441 -18.2417 -18.2365
   -18.2358 -18.2332 -18.2069 -18.2004 -18.1971 -18.1895 -18.1861 -18.1780
   -18.1750 -18.1658 -18.1643 -18.1572 -18.1571 -18.1548 -18.1521 -18.1445
   -18.1392 -18.1325 -18.1265 -18.1252 -18.1221 -18.1139 -18.1022 -18.0990
    -9.4595  -9.3391  -9.2682  -9.2027  -9.1799  -9.1172  -9.0717  -8.9771
    -8.9641  -8.9388  -8.9198  -8.8882  -8.8646  -8.8304  -8.8225  -8.7996
    -8.7674  -8.7568  -8.7161  -8.6987  -8.6397  -8.6060  -8.5657  -8.4573
    -5.3841  -5.3737  -5.3523  -5.3325  -5.3201  -5.3129  -5.2388  -5.2333
    -5.2248  -5.1454  -5.1420  -5.1355  -5.0990  -5.0876  -5.0809  -5.0324
    -5.0228  -5.0091  -4.9953  -4.9846  -4.9757  -4.9387  -4.9353  -4.9070
    -4.3137  -4.1068  -3.7927  -3.7226  -3.5838  -3.5047  -3.1778  -2.9678
    -0.7610  -0.6822  -0.6073  -0.5669  -0.5484  -0.4030  -0.3777  -0.2962
    -0.1323  -0.0638   0.0238   0.0833   0.4176   0.4657   0.4894   0.5173
     0.5742   0.6010   0.6397   0.6774   0.6962   0.7245   0.7767   0.8284
     0.8659   0.8962   0.9735   1.0353   1.0838   1.1204   1.1530   1.1685
     1.2055   1.2368   1.2635   1.2907   1.3161   1.3377   1.3476   1.3935
     1.4181   1.4377   1.4589   1.5005   1.5134   1.5415   1.5614   1.5836
     1.6079   1.6327   1.6576   1.6674   1.6995   1.7221   1.7461   1.7702
     1.7850   1.8123   1.8417   1.8993   1.9356   2.0000   2.0124   2.0573
     2.1135   2.1345   2.2661   2.3132   2.4641   2.4940   2.7619   2.9131

          k = 0.3750 0.1250-0.1250 (132608 PWs)   bands (ev):

   -18.6196 -18.5666 -18.4755 -18.3775 -18.3183 -18.3155 -18.3147 -18.3104
   -18.3016 -18.2980 -18.2760 -18.2756 -18.2682 -18.2668 -18.2643 -18.2601
   -18.2579 -18.2547 -18.2540 -18.2497 -18.2465 -18.2441 -18.2417 -18.2365
   -18.2358 -18.2332 -18.2069 -18.2004 -18.1971 -18.1895 -18.1861 -18.1780
   -18.1750 -18.1658 -18.1643 -18.1572 -18.1571 -18.1548 -18.1521 -18.1445
   -18.1392 -18.1325 -18.1265 -18.1252 -18.1221 -18.1139 -18.1022 -18.0990
    -9.4611  -9.3318  -9.2714  -9.2091  -9.1780  -9.1167  -9.0737  -8.9736
    -8.9574  -8.9458  -8.9072  -8.8982  -8.8672  -8.8357  -8.8134  -8.8029
    -8.7717  -8.7504  -8.7164  -8.7016  -8.6389  -8.6053  -8.5661  -8.4572
    -5.3841  -5.3738  -5.3523  -5.3325  -5.3201  -5.3129  -5.2388  -5.2333
    -5.2249  -5.1454  -5.1419  -5.1355  -5.0991  -5.0874  -5.0810  -5.0324
    -5.0228  -5.0091  -4.9953  -4.9845  -4.9758  -4.9388  -4.9353  -4.9068
    -4.3209  -4.0919  -3.7812  -3.7556  -3.5589  -3.5100  -3.1941  -2.9573
    -0.7554  -0.6946  -0.6164  -0.5428  -0.5365  -0.4198  -0.3648  -0.2972
    -0.1228  -0.0864  -0.0009   0.0869   0.4211   0.4504   0.4865   0.5232
     0.5763   0.6056   0.6458   0.6796   0.7036   0.7465   0.7729   0.8250
     0.8590   0.9060   0.9879   1.0241   1.0701   1.1117   1.1411   1.1810
     1.2152   1.2447   1.2735   1.2898   1.3024   1.3533   1.3713   1.3849
     1.4142   1.4274   1.4550   1.4905   1.5166   1.5373   1.5621   1.5899
     1.6084   1.6277   1.6497   1.6727   1.6899   1.7313   1.7385   1.7494
     1.7894   1.8172   1.8357   1.8922   1.9488   1.9986   2.0173   2.0743
     2.1181   2.1320   2.2548   2.3262   2.4531   2.4964   2.7614   2.9011

          k =-0.3750 0.1250 0.1250 (132608 PWs)   bands (ev):

   -18.6196 -18.5666 -18.4755 -18.3775 -18.3183 -18.3155 -18.3147 -18.3104
   -18.3016 -18.2980 -18.2760 -18.2756 -18.2682 -18.2668 -18.2643 -18.2601
   -18.2579 -18.2547 -18.2540 -18.2497 -18.2465 -18.2441 -18.2417 -18.2365
   -18.2358 -18.2332 -18.2069 -18.2004 -18.1971 -18.1895 -18.1861 -18.1780
   -18.1750 -18.1658 -18.1643 -18.1572 -18.1571 -18.1548 -18.1521 -18.1445
   -18.1392 -18.1325 -18.1265 -18.1252 -18.1221 -18.1139 -18.1022 -18.0990
    -9.4609  -9.3287  -9.2845  -9.1972  -9.1637  -9.1318  -9.0787  -8.9746
    -8.9555  -8.9444  -8.9133  -8.8918  -8.8659  -8.8233  -8.8169  -8.8094
    -8.7692  -8.7587  -8.7177  -8.6966  -8.6394  -8.6056  -8.5660  -8.4572
    -5.3841  -5.3738  -5.3523  -5.3325  -5.3200  -5.3129  -5.2389  -5.2333
    -5.2248  -5.1455  -5.1419  -5.1355  -5.0991  -5.0875  -5.0808  -5.0324
    -5.0227  -5.0093  -4.9954  -4.9845  -4.9756  -4.9387  -4.9353  -4.9069
    -4.3217  -4.0865  -3.8115  -3.7352  -3.5575  -3.4998  -3.2021  -2.9558
    -0.7535  -0.6830  -0.6078  -0.5654  -0.5411  -0.4222  -0.3557  -0.3056
    -0.1233  -0.0717  -0.0071   0.0855   0.4158   0.4474   0.4780   0.5413
     0.5747   0.6037   0.6462   0.6815   0.7117   0.7438   0.7863   0.8083
     0.8669   0.9046   0.9771   1.0420   1.0720   1.1249   1.1351   1.1663
     1.2037   1.2334   1.2764   1.2865   1.3103   1.3381   1.3553   1.3994
     1.4235   1.4409   1.4576   1.4883   1.5159   1.5348   1.5636   1.5765
     1.6161   1.6326   1.6535   1.6646   1.6939   1.7208   1.7429   1.7573
     1.7705   1.8239   1.8398   1.9007   1.9527   1.9934   2.0176   2.0726
     2.1100   2.1437   2.2648   2.3193   2.4449   2.4964   2.7617   2.9068

          k =-0.1250 0.3750 0.1250 (132608 PWs)   bands (ev):

   -18.6196 -18.5666 -18.4755 -18.3775 -18.3183 -18.3155 -18.3147 -18.3104
   -18.3016 -18.2980 -18.2761 -18.2756 -18.2682 -18.2668 -18.2642 -18.2601
   -18.2579 -18.2547 -18.2540 -18.2497 -18.2465 -18.2441 -18.2417 -18.2365
   -18.2358 -18.2332 -18.2069 -18.2004 -18.1971 -18.1895 -18.1861 -18.1780
   -18.1749 -18.1658 -18.1643 -18.1572 -18.1571 -18.1548 -18.1521 -18.1445
   -18.1392 -18.1325 -18.1265 -18.1252 -18.1221 -18.1139 -18.1023 -18.0990
    -9.4591  -9.3405  -9.2580  -9.2064  -9.1797  -9.1215  -9.0931  -8.9688
    -8.9445  -8.9312  -8.9134  -8.9054  -8.8760  -8.8433  -8.8086  -8.7982
    -8.7549  -8.7473  -8.7192  -8.6881  -8.6600  -8.6267  -8.5506  -8.4564
    -5.3841  -5.3739  -5.3523  -5.3324  -5.3199  -5.3129  -5.2388  -5.2333
    -5.2250  -5.1455  -5.1419  -5.1353  -5.0992  -5.0880  -5.0807  -5.0321
    -5.0226  -5.0090  -4.9959  -4.9847  -4.9755  -4.9386  -4.9352  -4.9069
    -4.3179  -4.0699  -3.7882  -3.7578  -3.5541  -3.5254  -3.2097  -2.9791
    -0.7161  -0.6320  -0.5886  -0.5217  -0.4822  -0.4315  -0.4122  -0.3017
    -0.1474  -0.0728   0.0004   0.0938   0.4154   0.4532   0.4953   0.5477
     0.5626   0.5867   0.6017   0.6293   0.6992   0.7126   0.7734   0.8132
     0.8908   0.9057   1.0038   1.0487   1.0686   1.1048   1.1400   1.1773
     1.2101   1.2538   1.2740   1.2852   1.3071   1.3442   1.3628   1.3862
     1.3989   1.4264   1.4443   1.4716   1.4995   1.5408   1.5735   1.6028
     1.6184   1.6314   1.6518   1.6673   1.6853   1.6959   1.7494   1.7775
     1.7900   1.8119   1.8402   1.9017   1.9396   1.9757   2.0152   2.0758
     2.1159   2.1396   2.2589   2.2969   2.4357   2.4896   2.7449   2.8909

          k =-0.1250-0.3750-0.1250 (132608 PWs)   bands (ev):

   -18.6196 -18.5666 -18.4755 -18.3775 -18.3183 -18.3155 -18.3147 -18.3104
   -18.3016 -18.2980 -18.2761 -18.2756 -18.2682 -18.2668 -18.2642 -18.2601
   -18.2579 -18.2547 -18.2540 -18.2497 -18.2465 -18.2441 -18.2417 -18.2365
   -18.2358 -18.2332 -18.2069 -18.2004 -18.1971 -18.1895 -18.1861 -18.1780
   -18.1749 -18.1658 -18.1643 -18.1572 -18.1571 -18.1548 -18.1521 -18.1445
   -18.1392 -18.1325 -18.1265 -18.1252 -18.1221 -18.1139 -18.1023 -18.0990
    -9.4581  -9.3434  -9.2557  -9.2133  -9.1748  -9.1178  -9.0905  -8.9742
    -8.9477  -8.9279  -8.9186  -8.8976  -8.8797  -8.8430  -8.8108  -8.8003
    -8.7500  -8.7441  -8.7186  -8.6905  -8.6603  -8.6272  -8.5505  -8.4565
    -5.3841  -5.3739  -5.3523  -5.3324  -5.3199  -5.3129  -5.2388  -5.2333
    -5.2250  -5.1455  -5.1419  -5.1353  -5.0991  -5.0880  -5.0808  -5.0321
    -5.0227  -5.0089  -4.9958  -4.9848  -4.9755  -4.9386  -4.9352  -4.9070
    -4.3136  -4.0750  -3.8148  -3.7247  -3.5890  -3.4941  -3.2057  -2.9848
    -0.7138  -0.6519  -0.5953  -0.5364  -0.4743  -0.4347  -0.3690  -0.3020
    -0.1385  -0.0770   0.0051   0.0810   0.4077   0.4450   0.5164   0.5320
     0.5700   0.5989   0.6099   0.6354   0.6743   0.7141   0.7746   0.8148
     0.8723   0.9088   0.9895   1.0710   1.0802   1.1115   1.1347   1.1752
     1.2046   1.2249   1.2630   1.2851   1.3047   1.3379   1.3670   1.3833
     1.4058   1.4362   1.4563   1.4675   1.4990   1.5453   1.5868   1.5912
     1.6226   1.6289   1.6593   1.6766   1.6990   1.7123   1.7402   1.7745
     1.7905   1.8126   1.8393   1.9010   1.9431   1.9600   2.0040   2.0737
     2.1158   2.1331   2.2333   2.3005   2.4498   2.4933   2.7575   2.8999

          k = 0.1250 0.3750-0.1250 (132608 PWs)   bands (ev):

   -18.6196 -18.5666 -18.4755 -18.3775 -18.3183 -18.3155 -18.3147 -18.3104
   -18.3016 -18.2980 -18.2761 -18.2756 -18.2682 -18.2668 -18.2642 -18.2601
   -18.2579 -18.2547 -18.2540 -18.2497 -18.2465 -18.2441 -18.2417 -18.2365
   -18.2358 -18.2332 -18.2069 -18.2004 -18.1971 -18.1895 -18.1861 -18.1780
   -18.1749 -18.1658 -18.1643 -18.1572 -18.1571 -18.1548 -18.1521 -18.1445
   -18.1392 -18.1325 -18.1265 -18.1252 -18.1221 -18.1139 -18.1023 -18.0990
    -9.4597  -9.3366  -9.2621  -9.2091  -9.1799  -9.1187  -9.0907  -8.9689
    -8.9474  -8.9276  -8.9117  -8.9067  -8.8776  -8.8453  -8.8171  -8.7926
    -8.7537  -8.7405  -8.7189  -8.6945  -8.6590  -8.6255  -8.5510  -8.4564
    -5.3841  -5.3739  -5.3523  -5.3324  -5.3199  -5.3129  -5.2387  -5.2333
    -5.2251  -5.1454  -5.1419  -5.1354  -5.0992  -5.0879  -5.0809  -5.0321
    -5.0227  -5.0089  -4.9958  -4.9847  -4.9756  -4.9387  -4.9352  -4.9068
    -4.3186  -4.0680  -3.7797  -3.7689  -3.5605  -3.5147  -3.2155  -2.9757
    -0.7163  -0.6499  -0.5796  -0.5266  -0.4771  -0.4406  -0.3947  -0.2873
    -0.1412  -0.0681  -0.0138   0.0681   0.4245   0.4452   0.5176   0.5413
     0.5687   0.5810   0.6056   0.6509   0.6826   0.7281   0.7601   0.8055
     0.8688   0.9143   0.9988   1.0368   1.0800   1.1094   1.1352   1.1754
     1.2048   1.2553   1.2803   1.2904   1.3188   1.3269   1.3577   1.3980
     1.4149   1.4254   1.4500   1.4756   1.5064   1.5374   1.5676   1.5854
     1.6330   1.6393   1.6545   1.6633   1.6849   1.7093   1.7309   1.7576
     1.7850   1.8114   1.8567   1.9031   1.9473   1.9693   1.9939   2.0839
     2.1105   2.1437   2.2515   2.3155   2.4394   2.4861   2.7298   2.9000

          k = 0.1250-0.3750 0.1250 (132608 PWs)   bands (ev):

   -18.6196 -18.5666 -18.4755 -18.3775 -18.3183 -18.3155 -18.3147 -18.3104
   -18.3016 -18.2980 -18.2761 -18.2756 -18.2682 -18.2668 -18.2642 -18.2601
   -18.2579 -18.2547 -18.2540 -18.2497 -18.2465 -18.2441 -18.2417 -18.2365
   -18.2358 -18.2332 -18.2069 -18.2004 -18.1971 -18.1895 -18.1861 -18.1780
   -18.1749 -18.1658 -18.1643 -18.1572 -18.1571 -18.1548 -18.1521 -18.1445
   -18.1392 -18.1325 -18.1265 -18.1252 -18.1221 -18.1139 -18.1022 -18.0990
    -9.4596  -9.3322  -9.2794  -9.1904  -9.1719  -9.1322  -9.0921  -8.9722
    -8.9505  -8.9219  -8.9100  -8.9038  -8.8802  -8.8425  -8.8172  -8.7926
    -8.7556  -8.7434  -8.7195  -8.6914  -8.6591  -8.6258  -8.5509  -8.4564
    -5.3841  -5.3738  -5.3523  -5.3324  -5.3199  -5.3129  -5.2388  -5.2333
    -5.2250  -5.1455  -5.1419  -5.1353  -5.0991  -5.0880  -5.0808  -5.0320
    -5.0226  -5.0090  -4.9959  -4.9847  -4.9755  -4.9386  -4.9353  -4.9068
    -4.3178  -4.0607  -3.8361  -3.7255  -3.5662  -3.4969  -3.2230  -2.9756
    -0.7091  -0.6463  -0.5967  -0.5502  -0.4787  -0.4117  -0.3902  -0.2881
    -0.1493  -0.0636  -0.0219   0.0857   0.4302   0.4561   0.5065   0.5456
     0.5603   0.5745   0.6088   0.6416   0.6923   0.7383   0.7518   0.7946
     0.8738   0.9161   1.0114   1.0562   1.0838   1.1005   1.1297   1.1616
     1.2070   1.2278   1.2649   1.2918   1.3216   1.3528   1.3566   1.3835
     1.4158   1.4284   1.4552   1.4738   1.4985   1.5490   1.5653   1.5870
     1.6118   1.6246   1.6490   1.6703   1.6939   1.7102   1.7466   1.7639
     1.7824   1.8229   1.8505   1.9056   1.9474   1.9772   2.0041   2.0745
     2.1117   2.1351   2.2192   2.3521   2.4193   2.4837   2.7510   2.9120

          k =-0.1250-0.3750 0.3750 (132616 PWs)   bands (ev):

   -18.6196 -18.5666 -18.4755 -18.3775 -18.3183 -18.3155 -18.3147 -18.3104
   -18.3016 -18.2980 -18.2761 -18.2756 -18.2682 -18.2668 -18.2642 -18.2601
   -18.2579 -18.2547 -18.2540 -18.2497 -18.2465 -18.2441 -18.2417 -18.2365
   -18.2358 -18.2332 -18.2069 -18.2004 -18.1971 -18.1895 -18.1861 -18.1780
   -18.1749 -18.1658 -18.1643 -18.1572 -18.1571 -18.1548 -18.1521 -18.1445
   -18.1392 -18.1325 -18.1265 -18.1252 -18.1221 -18.1139 -18.1023 -18.0990
    -9.4506  -9.3349  -9.2747  -9.1976  -9.1770  -9.1359  -9.0975  -8.9854
    -8.9558  -8.9320  -8.9066  -8.8953  -8.8778  -8.8386  -8.8039  -8.7739
    -8.7545  -8.7382  -8.7156  -8.7005  -8.6608  -8.6285  -8.5573  -8.4581
    -5.3841  -5.3739  -5.3523  -5.3324  -5.3199  -5.3128  -5.2388  -5.2333
    -5.2250  -5.1455  -5.1418  -5.1353  -5.0992  -5.0878  -5.0809  -5.0321
    -5.0228  -5.0091  -4.9952  -4.9845  -4.9756  -4.9392  -4.9358  -4.9066
    -4.2024  -3.9768  -3.9215  -3.7166  -3.6355  -3.4347  -3.3690  -3.1546
    -0.6429  -0.5903  -0.5314  -0.4587  -0.3676  -0.2236  -0.1928  -0.0864
    -0.0432   0.0110   0.0693   0.1683   0.3575   0.4359   0.4684   0.4985
     0.5166   0.5633   0.5749   0.6203   0.6293   0.6883   0.6988   0.7600
     0.8038   0.8893   0.9014   0.9401   1.0045   1.0385   1.0678   1.0971
     1.1435   1.2025   1.2213   1.2433   1.2789   1.2942   1.3283   1.3668
     1.4142   1.4467   1.4651   1.5017   1.5199   1.5585   1.5791   1.6026
     1.6472   1.6805   1.6901   1.6991   1.7281   1.7339   1.7467   1.7791
     1.7866   1.8374   1.8607   1.8869   1.9067   1.9534   1.9839   2.0291
     2.0826   2.1043   2.1509   2.2062   2.3163   2.4068   2.4749   2.6412

          k =-0.1250 0.3750-0.3750 (132616 PWs)   bands (ev):

   -18.6196 -18.5666 -18.4755 -18.3775 -18.3183 -18.3155 -18.3147 -18.3104
   -18.3016 -18.2980 -18.2761 -18.2756 -18.2682 -18.2668 -18.2642 -18.2601
   -18.2579 -18.2547 -18.2540 -18.2497 -18.2465 -18.2441 -18.2417 -18.2365
   -18.2358 -18.2332 -18.2069 -18.2004 -18.1971 -18.1895 -18.1861 -18.1780
   -18.1749 -18.1658 -18.1643 -18.1572 -18.1571 -18.1548 -18.1521 -18.1445
   -18.1392 -18.1325 -18.1265 -18.1252 -18.1221 -18.1139 -18.1023 -18.0990
    -9.4500  -9.3369  -9.2760  -9.1974  -9.1601  -9.1486  -9.0998  -8.9868
    -8.9600  -8.9281  -8.9026  -8.8952  -8.8785  -8.8371  -8.8034  -8.7780
    -8.7553  -8.7372  -8.7160  -8.6992  -8.6607  -8.6288  -8.5572  -8.4581
    -5.3841  -5.3739  -5.3523  -5.3324  -5.3199  -5.3129  -5.2388  -5.2333
    -5.2249  -5.1455  -5.1418  -5.1353  -5.0991  -5.0879  -5.0808  -5.0320
    -5.0227  -5.0092  -4.9953  -4.9845  -4.9755  -4.9390  -4.9358  -4.9066
    -4.1963  -3.9882  -3.9218  -3.7272  -3.6156  -3.4397  -3.3630  -3.1593
    -0.6270  -0.5886  -0.5482  -0.4849  -0.3516  -0.2237  -0.2020  -0.0837
    -0.0411   0.0193   0.0812   0.1825   0.3668   0.4379   0.4738   0.4886
     0.5078   0.5580   0.5822   0.5901   0.6284   0.6892   0.7236   0.7584
     0.7912   0.8791   0.9127   0.9454   1.0016   1.0311   1.0798   1.0886
     1.1408   1.1949   1.2245   1.2446   1.2780   1.3034   1.3291   1.3573
     1.4141   1.4434   1.4588   1.4918   1.5289   1.5645   1.5925   1.6040
     1.6274   1.6505   1.6860   1.6987   1.7247   1.7516   1.7649   1.7773
     1.7938   1.8363   1.8664   1.8963   1.9137   1.9700   1.9883   2.0179
     2.0748   2.0906   2.1459   2.1950   2.3237   2.3932   2.4964   2.6525

          k = 0.1250-0.3750-0.3750 (132616 PWs)   bands (ev):

   -18.6196 -18.5666 -18.4755 -18.3775 -18.3183 -18.3155 -18.3147 -18.3104
   -18.3016 -18.2980 -18.2761 -18.2756 -18.2682 -18.2668 -18.2642 -18.2601
   -18.2579 -18.2547 -18.2540 -18.2497 -18.2465 -18.2441 -18.2417 -18.2365
   -18.2358 -18.2332 -18.2069 -18.2004 -18.1971 -18.1895 -18.1861 -18.1780
   -18.1749 -18.1658 -18.1643 -18.1572 -18.1571 -18.1548 -18.1521 -18.1445
   -18.1392 -18.1325 -18.1265 -18.1252 -18.1221 -18.1139 -18.1023 -18.0990
    -9.4494  -9.3450  -9.2515  -9.2144  -9.1784  -9.1325  -9.0972  -8.9871
    -8.9573  -8.9301  -8.9063  -8.8968  -8.8752  -8.8372  -8.7974  -8.7813
    -8.7519  -8.7466  -8.7147  -8.6940  -8.6621  -8.6298  -8.5569  -8.4581
    -5.3841  -5.3739  -5.3523  -5.3324  -5.3199  -5.3128  -5.2389  -5.2333
    -5.2249  -5.1456  -5.1418  -5.1353  -5.0992  -5.0879  -5.0808  -5.0321
    -5.0227  -5.0092  -4.9953  -4.9845  -4.9755  -4.9390  -4.9358  -4.9067
    -4.1951  -4.0234  -3.8667  -3.7233  -3.6362  -3.4845  -3.3105  -3.1717
    -0.6292  -0.5942  -0.5280  -0.4743  -0.3517  -0.2587  -0.1906  -0.0942
    -0.0353   0.0124   0.0944   0.2097   0.3101   0.4156   0.4629   0.4975
     0.5232   0.5614   0.5820   0.6082   0.6556   0.6703   0.7097   0.7524
     0.8344   0.8746   0.9089   0.9670   0.9824   1.0155   1.0699   1.1074
     1.1640   1.1968   1.2162   1.2396   1.2710   1.2951   1.3281   1.3720
     1.4153   1.4353   1.4689   1.4984   1.5152   1.5726   1.5825   1.5947
     1.6309   1.6614   1.6781   1.7005   1.7130   1.7396   1.7596   1.7824
     1.8155   1.8347   1.8663   1.8832   1.9284   1.9591   1.9933   2.0306
     2.0725   2.0958   2.1230   2.2300   2.3061   2.4087   2.4846   2.6338

          k = 0.3750 0.1250-0.3750 (132616 PWs)   bands (ev):

   -18.6196 -18.5666 -18.4755 -18.3775 -18.3183 -18.3155 -18.3147 -18.3104
   -18.3016 -18.2980 -18.2760 -18.2756 -18.2682 -18.2668 -18.2643 -18.2601
   -18.2579 -18.2547 -18.2540 -18.2497 -18.2465 -18.2441 -18.2417 -18.2365
   -18.2358 -18.2332 -18.2069 -18.2004 -18.1971 -18.1895 -18.1861 -18.1780
   -18.1750 -18.1658 -18.1643 -18.1572 -18.1571 -18.1548 -18.1521 -18.1445
   -18.1392 -18.1325 -18.1265 -18.1252 -18.1221 -18.1139 -18.1023 -18.0990
    -9.4515  -9.3363  -9.2709  -9.2102  -9.1761  -9.1230  -9.0868  -8.9906
    -8.9655  -8.9400  -8.9016  -8.8902  -8.8696  -8.8397  -8.8072  -8.7868
    -8.7594  -8.7417  -8.7132  -8.7028  -8.6460  -8.6134  -8.5705  -8.4582
    -5.3840  -5.3738  -5.3522  -5.3325  -5.3201  -5.3128  -5.2387  -5.2333
    -5.2248  -5.1455  -5.1420  -5.1356  -5.0990  -5.0873  -5.0811  -5.0322
    -5.0227  -5.0091  -4.9947  -4.9843  -4.9758  -4.9395  -4.9358  -4.9068
    -4.2127  -3.9772  -3.9345  -3.7344  -3.6174  -3.4139  -3.3598  -3.1308
    -0.7480  -0.5899  -0.5448  -0.4883  -0.3649  -0.2369  -0.1676  -0.1096
    -0.0477   0.0136   0.0701   0.1897   0.3375   0.4380   0.4799   0.5124
     0.5268   0.5644   0.6018   0.6249   0.6612   0.6994   0.7131   0.7579
     0.8190   0.8759   0.8969   0.9504   0.9904   1.0493   1.0799   1.0976
     1.1432   1.1877   1.2121   1.2521   1.2775   1.3020   1.3241   1.3733
     1.4198   1.4434   1.4850   1.5054   1.5158   1.5395   1.5720   1.6179
     1.6339   1.6489   1.6613   1.6990   1.7212   1.7474   1.7760   1.7950
     1.8112   1.8432   1.8579   1.8834   1.9146   1.9641   2.0092   2.0477
     2.0669   2.0881   2.1325   2.2174   2.3226   2.4302   2.5184   2.6194

          k =-0.3750-0.1250-0.3750 (132616 PWs)   bands (ev):

   -18.6196 -18.5666 -18.4755 -18.3775 -18.3183 -18.3155 -18.3147 -18.3104
   -18.3016 -18.2980 -18.2760 -18.2756 -18.2682 -18.2668 -18.2643 -18.2601
   -18.2579 -18.2547 -18.2540 -18.2497 -18.2465 -18.2441 -18.2417 -18.2365
   -18.2358 -18.2332 -18.2069 -18.2004 -18.1971 -18.1895 -18.1861 -18.1780
   -18.1750 -18.1658 -18.1643 -18.1572 -18.1571 -18.1548 -18.1521 -18.1445
   -18.1392 -18.1325 -18.1265 -18.1252 -18.1221 -18.1139 -18.1023 -18.0990
    -9.4493  -9.3448  -9.2656  -9.2057  -9.1771  -9.1253  -9.0832  -8.9920
    -8.9716  -8.9374  -8.9088  -8.8840  -8.8679  -8.8377  -8.8122  -8.7784
    -8.7583  -8.7515  -8.7117  -8.6984  -8.6474  -8.6143  -8.5700  -8.4582
    -5.3841  -5.3737  -5.3522  -5.3325  -5.3201  -5.3129  -5.2387  -5.2333
    -5.2247  -5.1456  -5.1421  -5.1356  -5.0990  -5.0874  -5.0811  -5.0323
    -5.0227  -5.0091  -4.9947  -4.9844  -4.9757  -4.9394  -4.9357  -4.9069
    -4.1882  -4.0640  -3.8544  -3.7480  -3.6060  -3.4861  -3.2703  -3.1636
    -0.7504  -0.5780  -0.5457  -0.5023  -0.3741  -0.2542  -0.1893  -0.0822
    -0.0465   0.0582   0.0855   0.2233   0.3258   0.4212   0.4703   0.4915
     0.5297   0.5509   0.5877   0.6128   0.6628   0.6885   0.7091   0.7944
     0.8176   0.8678   0.8902   0.9569   1.0077   1.0238   1.0827   1.1066
     1.1618   1.1907   1.2028   1.2455   1.2584   1.3074   1.3454   1.3677
     1.4233   1.4456   1.4618   1.4985   1.5137   1.5603   1.5806   1.6110
     1.6294   1.6450   1.6733   1.7071   1.7298   1.7471   1.7663   1.7747
     1.8257   1.8432   1.8635   1.9030   1.9230   1.9491   2.0045   2.0373
     2.0728   2.0802   2.1307   2.2060   2.3261   2.4328   2.5146   2.6363

          k = 0.3750-0.1250 0.3750 (132616 PWs)   bands (ev):

   -18.6196 -18.5666 -18.4755 -18.3775 -18.3183 -18.3155 -18.3147 -18.3104
   -18.3016 -18.2980 -18.2760 -18.2756 -18.2682 -18.2668 -18.2643 -18.2601
   -18.2579 -18.2547 -18.2540 -18.2497 -18.2465 -18.2441 -18.2417 -18.2365
   -18.2358 -18.2332 -18.2069 -18.2004 -18.1971 -18.1895 -18.1861 -18.1780
   -18.1750 -18.1658 -18.1643 -18.1572 -18.1571 -18.1548 -18.1521 -18.1445
   -18.1392 -18.1325 -18.1265 -18.1252 -18.1221 -18.1139 -18.1023 -18.0990
    -9.4503  -9.3440  -9.2559  -9.2077  -9.1937  -9.1128  -9.0894  -8.9921
    -8.9680  -8.9384  -8.8973  -8.8949  -8.8672  -8.8367  -8.8126  -8.7781
    -8.7631  -8.7479  -8.7135  -8.6989  -8.6464  -8.6136  -8.5704  -8.4582
    -5.3841  -5.3737  -5.3523  -5.3325  -5.3200  -5.3129  -5.2387  -5.2333
    -5.2247  -5.1456  -5.1421  -5.1356  -5.0990  -5.0874  -5.0811  -5.0322
    -5.0226  -5.0092  -4.9948  -4.9843  -4.9757  -4.9394  -4.9358  -4.9067
    -4.1930  -4.0605  -3.8490  -3.7389  -3.6198  -3.4899  -3.2715  -3.1581
    -0.7432  -0.5874  -0.5436  -0.4929  -0.3881  -0.2527  -0.1904  -0.0868
    -0.0467   0.0457   0.1040   0.2192   0.3177   0.4321   0.4616   0.5114
     0.5420   0.5568   0.5836   0.6124   0.6604   0.6835   0.7249   0.7647
     0.8124   0.8761   0.9035   0.9423   1.0000   1.0416   1.0663   1.1006
     1.1586   1.1943   1.2248   1.2432   1.2716   1.3096   1.3219   1.3715
     1.4233   1.4574   1.4693   1.4923   1.5258   1.5420   1.5749   1.6030
     1.6140   1.6445   1.6664   1.7026   1.7252   1.7409   1.7695   1.7912
     1.8046   1.8534   1.8645   1.9145   1.9301   1.9546   2.0134   2.0309
     2.0552   2.0972   2.1405   2.2073   2.3291   2.4317   2.5120   2.6304

          k =-0.3750 0.1250 0.3750 (132616 PWs)   bands (ev):

   -18.6196 -18.5666 -18.4755 -18.3775 -18.3183 -18.3155 -18.3147 -18.3104
   -18.3016 -18.2980 -18.2760 -18.2756 -18.2682 -18.2668 -18.2643 -18.2601
   -18.2579 -18.2547 -18.2540 -18.2497 -18.2465 -18.2441 -18.2417 -18.2365
   -18.2358 -18.2332 -18.2069 -18.2004 -18.1971 -18.1895 -18.1861 -18.1780
   -18.1750 -18.1658 -18.1643 -18.1572 -18.1571 -18.1548 -18.1521 -18.1445
   -18.1392 -18.1325 -18.1265 -18.1252 -18.1221 -18.1139 -18.1023 -18.0990
    -9.4507  -9.3400  -9.2699  -9.2072  -9.1676  -9.1307  -9.0908  -8.9936
    -8.9607  -8.9422  -8.9021  -8.8887  -8.8681  -8.8322  -8.8090  -8.7908
    -8.7608  -8.7460  -8.7115  -8.6995  -8.6468  -8.6139  -8.5703  -8.4581
    -5.3841  -5.3738  -5.3522  -5.3325  -5.3200  -5.3129  -5.2388  -5.2333
    -5.2247  -5.1456  -5.1420  -5.1355  -5.0990  -5.0874  -5.0810  -5.0323
    -5.0226  -5.0093  -4.9948  -4.9843  -4.9757  -4.9394  -4.9357  -4.9069
    -4.2114  -3.9783  -3.9369  -3.7380  -3.6087  -3.4164  -3.3589  -3.1323
    -0.7429  -0.5838  -0.5505  -0.4953  -0.3610  -0.2428  -0.1616  -0.1226
    -0.0426   0.0172   0.0656   0.1986   0.3462   0.4321   0.4692   0.5096
     0.5315   0.5599   0.6084   0.6153   0.6714   0.7038   0.7234   0.7580
     0.8160   0.8698   0.9098   0.9413   0.9718   1.0505   1.0921   1.1083
     1.1450   1.1599   1.2137   1.2589   1.2730   1.3011   1.3324   1.3856
     1.4228   1.4461   1.4727   1.4855   1.5197   1.5587   1.5779   1.5889
     1.6315   1.6518   1.6663   1.7019   1.7136   1.7420   1.7729   1.8010
     1.8100   1.8487   1.8665   1.8880   1.9207   1.9665   2.0175   2.0489
     2.0679   2.0767   2.1352   2.1886   2.3441   2.4266   2.5259   2.6131

          k = 0.3750-0.3750 0.1250 (132616 PWs)   bands (ev):

   -18.6196 -18.5666 -18.4755 -18.3775 -18.3183 -18.3155 -18.3147 -18.3104
   -18.3016 -18.2980 -18.2760 -18.2756 -18.2682 -18.2668 -18.2643 -18.2601
   -18.2579 -18.2547 -18.2540 -18.2497 -18.2465 -18.2441 -18.2417 -18.2365
   -18.2358 -18.2332 -18.2069 -18.2004 -18.1971 -18.1895 -18.1861 -18.1780
   -18.1749 -18.1658 -18.1643 -18.1572 -18.1571 -18.1548 -18.1521 -18.1445
   -18.1392 -18.1325 -18.1265 -18.1252 -18.1221 -18.1139 -18.1023 -18.0990
    -9.4532  -9.3273  -9.2810  -9.1993  -9.1592  -9.1422  -9.1095  -8.9771
    -8.9596  -8.9366  -8.9219  -8.8958  -8.8520  -8.8247  -8.8023  -8.7838
    -8.7644  -8.7474  -8.7252  -8.6937  -8.6584  -8.6125  -8.5659  -8.4578
    -5.3840  -5.3737  -5.3522  -5.3326  -5.3201  -5.3130  -5.2387  -5.2333
    -5.2247  -5.1455  -5.1419  -5.1354  -5.0992  -5.0881  -5.0808  -5.0323
    -5.0224  -5.0088  -4.9957  -4.9848  -4.9755  -4.9386  -4.9353  -4.9070
    -4.1993  -3.9802  -3.9387  -3.7194  -3.6129  -3.4356  -3.3602  -3.1627
    -0.6982  -0.5350  -0.5227  -0.4088  -0.3413  -0.2590  -0.1910  -0.1355
    -0.0612  -0.0086   0.1129   0.1647   0.3291   0.4399   0.4610   0.5174
     0.5254   0.5704   0.5869   0.6083   0.6291   0.6637   0.7007   0.7219
     0.7995   0.9024   0.9219   0.9550   0.9662   1.0087   1.0845   1.0953
     1.1583   1.1937   1.2208   1.2609   1.2937   1.3138   1.3509   1.3695
     1.3777   1.4415   1.4536   1.4983   1.5294   1.5609   1.5731   1.5951
     1.6330   1.6663   1.6863   1.6953   1.7257   1.7452   1.7766   1.7935
     1.8200   1.8410   1.8629   1.8970   1.9255   1.9435   1.9851   2.0149
     2.0296   2.0742   2.1198   2.1958   2.3303   2.4184   2.5512   2.6700

          k =-0.3750-0.3750-0.1250 (132616 PWs)   bands (ev):

   -18.6196 -18.5666 -18.4755 -18.3775 -18.3183 -18.3155 -18.3147 -18.3104
   -18.3016 -18.2980 -18.2760 -18.2756 -18.2682 -18.2668 -18.2643 -18.2601
   -18.2579 -18.2547 -18.2540 -18.2497 -18.2465 -18.2441 -18.2417 -18.2365
   -18.2358 -18.2332 -18.2069 -18.2004 -18.1971 -18.1895 -18.1861 -18.1780
   -18.1749 -18.1658 -18.1643 -18.1572 -18.1571 -18.1548 -18.1521 -18.1445
   -18.1392 -18.1325 -18.1265 -18.1252 -18.1221 -18.1139 -18.1022 -18.0990
    -9.4519  -9.3345  -9.2747  -9.1989  -9.1652  -9.1369  -9.1060  -8.9817
    -8.9548  -8.9417  -8.9261  -8.8912  -8.8522  -8.8182  -8.8078  -8.7930
    -8.7551  -8.7467  -8.7229  -8.6947  -8.6597  -8.6132  -8.5657  -8.4579
    -5.3840  -5.3737  -5.3522  -5.3326  -5.3202  -5.3130  -5.2387  -5.2333
    -5.2248  -5.1454  -5.1420  -5.1354  -5.0992  -5.0882  -5.0808  -5.0323
    -5.0224  -5.0087  -4.9957  -4.9848  -4.9755  -4.9386  -4.9352  -4.9071
    -4.1900  -4.0235  -3.8976  -3.7324  -3.6041  -3.4605  -3.3241  -3.1771
    -0.6988  -0.5466  -0.5027  -0.4200  -0.3689  -0.2388  -0.1719  -0.1241
    -0.0913   0.0346   0.1125   0.1522   0.3420   0.3871   0.4504   0.5040
     0.5432   0.5684   0.5883   0.6072   0.6365   0.6604   0.7031   0.7471
     0.8083   0.8739   0.9323   0.9628   0.9805   0.9952   1.0355   1.1284
     1.1660   1.2107   1.2296   1.2614   1.2793   1.3030   1.3408   1.3659
     1.3989   1.4143   1.4387   1.5090   1.5353   1.5748   1.5885   1.6112
     1.6297   1.6519   1.6879   1.7076   1.7365   1.7579   1.7745   1.7898
     1.8258   1.8349   1.8584   1.8767   1.9138   1.9594   1.9875   2.0105
     2.0156   2.0662   2.1284   2.1930   2.3117   2.4520   2.5384   2.6684

          k = 0.3750 0.3750-0.1250 (132616 PWs)   bands (ev):

   -18.6196 -18.5666 -18.4755 -18.3775 -18.3183 -18.3155 -18.3147 -18.3104
   -18.3016 -18.2980 -18.2760 -18.2756 -18.2682 -18.2668 -18.2643 -18.2601
   -18.2579 -18.2547 -18.2540 -18.2497 -18.2465 -18.2441 -18.2417 -18.2365
   -18.2358 -18.2332 -18.2069 -18.2004 -18.1971 -18.1895 -18.1861 -18.1780
   -18.1749 -18.1658 -18.1643 -18.1572 -18.1571 -18.1548 -18.1521 -18.1445
   -18.1392 -18.1325 -18.1265 -18.1252 -18.1221 -18.1139 -18.1022 -18.0990
    -9.4534  -9.3326  -9.2614  -9.2152  -9.1785  -9.1222  -9.1066  -8.9784
    -8.9532  -8.9431  -8.9194  -8.8995  -8.8514  -8.8272  -8.8035  -8.7861
    -8.7587  -8.7444  -8.7248  -8.6970  -8.6584  -8.6121  -8.5661  -8.4578
    -5.3840  -5.3737  -5.3522  -5.3326  -5.3202  -5.3130  -5.2386  -5.2333
    -5.2248  -5.1454  -5.1419  -5.1354  -5.0993  -5.0880  -5.0809  -5.0323
    -5.0224  -5.0087  -4.9957  -4.9848  -4.9756  -4.9387  -4.9352  -4.9070
    -4.2009  -4.0117  -3.8879  -3.7173  -3.6313  -3.4655  -3.3289  -3.1657
    -0.6984  -0.5371  -0.4832  -0.4471  -0.3600  -0.2440  -0.1620  -0.1363
    -0.0883   0.0167   0.1062   0.1491   0.3307   0.3998   0.4481   0.5140
     0.5528   0.5797   0.5847   0.6056   0.6286   0.6673   0.7067   0.7333
     0.8112   0.8775   0.9381   0.9662   0.9717   1.0174   1.0280   1.1196
     1.1544   1.1969   1.2417   1.2549   1.2989   1.3233   1.3382   1.3629
     1.3974   1.4273   1.4607   1.4945   1.5417   1.5557   1.5620   1.6026
     1.6334   1.6660   1.6820   1.7048   1.7239   1.7452   1.7541   1.7993
     1.8303   1.8446   1.8651   1.8780   1.9216   1.9499   1.9907   2.0050
     2.0279   2.0701   2.1391   2.2175   2.2905   2.4546   2.5340   2.6507

          k =-0.3750 0.3750 0.1250 (132616 PWs)   bands (ev):

   -18.6196 -18.5666 -18.4755 -18.3775 -18.3183 -18.3155 -18.3147 -18.3104
   -18.3016 -18.2980 -18.2760 -18.2756 -18.2682 -18.2668 -18.2643 -18.2601
   -18.2579 -18.2547 -18.2540 -18.2497 -18.2465 -18.2441 -18.2417 -18.2365
   -18.2358 -18.2332 -18.2069 -18.2004 -18.1971 -18.1895 -18.1861 -18.1780
   -18.1749 -18.1658 -18.1643 -18.1572 -18.1571 -18.1548 -18.1521 -18.1445
   -18.1392 -18.1325 -18.1265 -18.1252 -18.1221 -18.1139 -18.1022 -18.0990
    -9.4531  -9.3299  -9.2777  -9.1942  -9.1680  -9.1386  -9.1109  -8.9794
    -8.9506  -8.9436  -8.9228  -8.8949  -8.8520  -8.8194  -8.7983  -8.7922
    -8.7638  -8.7509  -8.7229  -8.6918  -8.6596  -8.6125  -8.5660  -8.4578
    -5.3840  -5.3737  -5.3521  -5.3326  -5.3201  -5.3130  -5.2387  -5.2333
    -5.2247  -5.1455  -5.1419  -5.1354  -5.0993  -5.0881  -5.0808  -5.0323
    -5.0223  -5.0089  -4.9957  -4.9848  -4.9755  -4.9386  -4.9352  -4.9071
    -4.2038  -3.9611  -3.9509  -3.7119  -3.6236  -3.4327  -3.3659  -3.1595
    -0.6967  -0.5329  -0.4921  -0.4429  -0.3368  -0.2501  -0.1937  -0.1504
    -0.0548  -0.0098   0.0996   0.1732   0.3250   0.4251   0.4591   0.4985
     0.5352   0.5717   0.5840   0.6118   0.6296   0.6791   0.7152   0.7443
     0.7952   0.8885   0.9150   0.9565   0.9790   1.0188   1.0523   1.1034
     1.1534   1.2039   1.2281   1.2660   1.2911   1.3120   1.3423   1.3664
     1.4018   1.4188   1.4384   1.4920   1.5230   1.5575   1.6116   1.6180
     1.6251   1.6611   1.6813   1.7059   1.7200   1.7398   1.7772   1.7990
     1.8287   1.8368   1.8615   1.8740   1.9175   1.9528   1.9727   2.0221
     2.0307   2.1008   2.1256   2.1952   2.3056   2.4281   2.5411   2.6626

          k =-0.3750-0.3750 0.3750 (132612 PWs)   bands (ev):

   -18.6196 -18.5666 -18.4755 -18.3775 -18.3183 -18.3155 -18.3147 -18.3104
   -18.3016 -18.2980 -18.2760 -18.2756 -18.2682 -18.2668 -18.2643 -18.2601
   -18.2579 -18.2547 -18.2540 -18.2497 -18.2465 -18.2441 -18.2417 -18.2365
   -18.2358 -18.2332 -18.2069 -18.2004 -18.1971 -18.1895 -18.1861 -18.1780
   -18.1749 -18.1658 -18.1643 -18.1572 -18.1571 -18.1548 -18.1521 -18.1445
   -18.1392 -18.1325 -18.1265 -18.1252 -18.1221 -18.1139 -18.1023 -18.0990
    -9.4464  -9.3317  -9.2535  -9.2167  -9.1880  -9.1279  -9.1133  -9.0080
    -8.9640  -8.9447  -8.8980  -8.8886  -8.8500  -8.8178  -8.7961  -8.7713
    -8.7588  -8.7463  -8.7216  -8.7006  -8.6612  -8.6164  -8.5709  -8.4590
    -5.3840  -5.3738  -5.3522  -5.3326  -5.3202  -5.3129  -5.2387  -5.2333
    -5.2248  -5.1455  -5.1420  -5.1354  -5.0992  -5.0878  -5.0809  -5.0322
    -5.0225  -5.0089  -4.9950  -4.9845  -4.9756  -4.9392  -4.9357  -4.9066
    -4.1015  -3.8975  -3.8186  -3.7615  -3.6482  -3.5730  -3.4874  -3.3225
    -0.4481  -0.4161  -0.3169  -0.2997  -0.1995  -0.1526  -0.1102  -0.0810
    -0.0032   0.0262   0.0855   0.2408   0.2966   0.3645   0.4185   0.4576
     0.4835   0.5108   0.5499   0.5634   0.6065   0.6404   0.6648   0.6942
     0.8577   0.8821   0.9164   0.9370   0.9555   1.0123   1.0292   1.0405
     1.0993   1.1215   1.1566   1.1645   1.2202   1.2363   1.2768   1.3079
     1.3938   1.4320   1.4890   1.5188   1.5401   1.5774   1.5860   1.6273
     1.6608   1.6979   1.7001   1.7307   1.7563   1.7767   1.7893   1.7972
     1.8315   1.8473   1.8596   1.8857   1.9022   1.9292   1.9724   1.9884
     2.0339   2.0583   2.0832   2.1382   2.1675   2.2210   2.2546   2.3493

          k =-0.3750 0.3750-0.3750 (132612 PWs)   bands (ev):

   -18.6196 -18.5666 -18.4755 -18.3775 -18.3183 -18.3155 -18.3147 -18.3104
   -18.3016 -18.2980 -18.2760 -18.2756 -18.2682 -18.2668 -18.2643 -18.2601
   -18.2579 -18.2547 -18.2540 -18.2497 -18.2465 -18.2441 -18.2417 -18.2365
   -18.2358 -18.2332 -18.2069 -18.2004 -18.1971 -18.1895 -18.1861 -18.1780
   -18.1750 -18.1658 -18.1643 -18.1572 -18.1571 -18.1548 -18.1521 -18.1445
   -18.1392 -18.1325 -18.1265 -18.1252 -18.1221 -18.1139 -18.1022 -18.0990
    -9.4457  -9.3339  -9.2581  -9.2078  -9.1841  -9.1332  -9.1153  -9.0081
    -8.9679  -8.9414  -8.8975  -8.8876  -8.8489  -8.8127  -8.7993  -8.7761
    -8.7584  -8.7466  -8.7212  -8.6995  -8.6611  -8.6168  -8.5707  -8.4590
    -5.3840  -5.3738  -5.3522  -5.3326  -5.3201  -5.3130  -5.2387  -5.2334
    -5.2247  -5.1455  -5.1420  -5.1354  -5.0991  -5.0879  -5.0809  -5.0322
    -5.0224  -5.0090  -4.9951  -4.9845  -4.9755  -4.9391  -4.9357  -4.9066
    -4.0826  -3.9483  -3.8142  -3.7221  -3.6406  -3.6104  -3.4538  -3.3379
    -0.4425  -0.4078  -0.3531  -0.2748  -0.2203  -0.1762  -0.1173  -0.0475
    -0.0272   0.0228   0.1517   0.2566   0.3093   0.3853   0.4009   0.4502
     0.4684   0.4967   0.5439   0.5730   0.5968   0.6179   0.6623   0.7041
     0.8509   0.8786   0.9135   0.9454   0.9903   1.0005   1.0166   1.0486
     1.0897   1.1095   1.1440   1.1749   1.2171   1.2477   1.2726   1.3044
     1.4017   1.4416   1.4672   1.5162   1.5474   1.5712   1.6002   1.6199
     1.6630   1.6782   1.6916   1.7315   1.7542   1.7827   1.7953   1.8068
     1.8342   1.8537   1.8677   1.8934   1.9149   1.9406   1.9635   2.0010
     2.0229   2.0327   2.0711   2.1281   2.1609   2.2059   2.2903   2.3630

          k = 0.3750-0.3750-0.3750 (132612 PWs)   bands (ev):

   -18.6196 -18.5666 -18.4755 -18.3775 -18.3183 -18.3155 -18.3147 -18.3104
   -18.3016 -18.2980 -18.2760 -18.2756 -18.2682 -18.2668 -18.2643 -18.2601
   -18.2579 -18.2547 -18.2540 -18.2497 -18.2465 -18.2441 -18.2417 -18.2365
   -18.2358 -18.2332 -18.2069 -18.2004 -18.1971 -18.1895 -18.1861 -18.1780
   -18.1750 -18.1658 -18.1643 -18.1572 -18.1571 -18.1548 -18.1521 -18.1445
   -18.1392 -18.1325 -18.1265 -18.1252 -18.1221 -18.1139 -18.1023 -18.0990
    -9.4455  -9.3361  -9.2530  -9.2105  -9.1809  -9.1417  -9.1104  -9.0112
    -8.9621  -8.9443  -8.9001  -8.8858  -8.8486  -8.8095  -8.7925  -8.7848
    -8.7564  -8.7532  -8.7189  -8.6960  -8.6630  -8.6168  -8.5707  -8.4589
    -5.3840  -5.3738  -5.3522  -5.3326  -5.3201  -5.3130  -5.2388  -5.2333
    -5.2247  -5.1456  -5.1419  -5.1353  -5.0992  -5.0879  -5.0808  -5.0322
    -5.0224  -5.0090  -4.9951  -4.9845  -4.9754  -4.9391  -4.9357  -4.9067
    -4.0971  -3.9105  -3.8259  -3.7463  -3.6293  -3.5969  -3.4774  -3.3270
    -0.4471  -0.4016  -0.3189  -0.2790  -0.2392  -0.1758  -0.1054  -0.0548
    -0.0109   0.0154   0.0870   0.2679   0.3108   0.3528   0.4175   0.4401
     0.4699   0.5272   0.5346   0.5809   0.5957   0.6351   0.6833   0.7027
     0.8544   0.8886   0.9194   0.9353   0.9662   0.9752   1.0346   1.0622
     1.0870   1.1085   1.1386   1.1821   1.2254   1.2395   1.2689   1.3225
     1.4030   1.4253   1.4484   1.5166   1.5519   1.5715   1.5963   1.6472
     1.6600   1.6878   1.7006   1.7130   1.7521   1.7745   1.7957   1.8134
     1.8312   1.8514   1.8710   1.8944   1.9170   1.9335   1.9596   2.0127
     2.0225   2.0453   2.0918   2.1078   2.1431   2.2171   2.2776   2.3562

     highest occupied level (ev):     3.1541

!    total energy              =   -2256.30430515 Ry
     estimated scf accuracy    <          7.0E-11 Ry

     The total energy is the sum of the following terms:
     one-electron contribution =    -982.68543584 Ry
     hartree contribution      =     619.47353833 Ry
     xc contribution           =    -647.44328222 Ry
     ewald contribution        =   -1245.64912541 Ry

     convergence has been achieved in  15 iterations

     Forces acting on atoms (cartesian axes, Ry/au):

     atom    1 type  1   force =    -0.00233052   -0.00090199   -0.00001329
     atom    2 type  2   force =     0.00583763    0.00513407   -0.00307880
     atom    3 type  3   force =    -0.00305151   -0.00446369    0.00471191
     atom    4 type  3   force =    -0.00494756    0.00048666    0.01297064
     atom    5 type  3   force =     0.00374758   -0.00931810    0.00263971
     atom    6 type  1   force =    -0.00141866   -0.00132090   -0.00068323
     atom    7 type  2   force =     0.01393680   -0.01620188    0.00567976
     atom    8 type  3   force =     0.00930934   -0.00026369   -0.00060923
     atom    9 type  3   force =     0.00154989    0.00130168   -0.01695535
     atom   10 type  3   force =     0.00667743    0.00960035    0.00339754
     atom   11 type  1   force =    -0.00147447   -0.00049679    0.00002151
     atom   12 type  2   force =     0.00346657   -0.00089893   -0.00217497
     atom   13 type  3   force =    -0.00390400   -0.00616235    0.00176258
     atom   14 type  3   force =     0.00368568    0.00935831    0.00410344
     atom   15 type  3   force =    -0.00060022    0.00410087    0.00160513
     atom   16 type  1   force =    -0.00183555    0.00432076   -0.00073350
     atom   17 type  2   force =    -0.02064879    0.00132772    0.00395589
     atom   18 type  3   force =    -0.00187939    0.00204382   -0.00053571
     atom   19 type  3   force =     0.00415751    0.00386301   -0.01154073
     atom   20 type  3   force =    -0.00160258   -0.01093674   -0.00332370
     atom   21 type  1   force =     0.00347356    0.01161183   -0.00380987
     atom   22 type  2   force =    -0.00855998    0.02218991   -0.00949767
     atom   23 type  3   force =     0.00866160   -0.00572326    0.00706386
     atom   24 type  3   force =    -0.00964459   -0.00930283   -0.00416578
     atom   25 type  3   force =    -0.00578720    0.00932673    0.00341903
     atom   26 type  1   force =     0.00117957   -0.00211583   -0.00089726
     atom   27 type  2   force =     0.00295681   -0.00357463    0.00799895
     atom   28 type  3   force =    -0.00802845   -0.00658205    0.00408800
     atom   29 type  3   force =    -0.00434841    0.00778503    0.00658238
     atom   30 type  3   force =    -0.00151867    0.00093933    0.00330918
     atom   31 type  1   force =    -0.00072395   -0.00347058    0.00207102
     atom   32 type  2   force =    -0.00416409   -0.00481614    0.00721391
     atom   33 type  3   force =    -0.00526605    0.00305065    0.00259729
     atom   34 type  3   force =    -0.00452837   -0.00092275   -0.01175838
     atom   35 type  3   force =     0.00397284   -0.00114019    0.00251707
     atom   36 type  1   force =     0.00702105   -0.00017181    0.00400055
     atom   37 type  2   force =     0.01552566   -0.00071585   -0.03009785
     atom   38 type  3   force =     0.00458953    0.00482746    0.00518207
     atom   39 type  3   force =     0.00338382   -0.00108347    0.01735500
     atom   40 type  3   force =    -0.00686986   -0.01068375   -0.01437111

     Total force =     0.079970     Total SCF correction =     0.000044


     Computing stress (Cartesian axis) and pressure

          total   stress  (Ry/bohr**3)                   (kbar)     P=       -8.17
  -0.00006017   0.00000209   0.00000317           -8.85        0.31        0.47
   0.00000209  -0.00005359  -0.00000648            0.31       -7.88       -0.95
   0.00000317  -0.00000648  -0.00005279            0.47       -0.95       -7.77

 
     init_run     :     20.05s CPU     17.23s WALL (       1 calls)
     electrons    :    201.65s CPU    213.52s WALL (       1 calls)
     forces       :      8.78s CPU      4.00s WALL (       1 calls)
     stress       :     31.80s CPU     31.29s WALL (       1 calls)

     Called by init_run:
     wfcinit      :     12.20s CPU     14.16s WALL (       1 calls)
                                       14.16s GPU  (       1 calls)
     potinit      :      4.45s CPU      1.40s WALL (       1 calls)
     hinit0       :      2.81s CPU      1.00s WALL (       1 calls)

     Called by electrons:
     c_bands      :    120.32s CPU    170.91s WALL (      16 calls)
     sum_band     :     22.13s CPU     21.22s WALL (      16 calls)
                                       21.22s GPU  (      16 calls)
     v_of_rho     :     54.62s CPU     16.54s WALL (      16 calls)
     mix_rho      :      6.44s CPU      4.93s WALL (      16 calls)

     Called by c_bands:
     init_us_2    :      2.37s CPU      3.13s WALL (     280 calls)
                                        3.13s GPU  (     280 calls)
     cegterg      :     80.88s CPU    128.85s WALL (     128 calls)

     Called by *egterg:
     cdiaghg      :     14.27s CPU     26.38s WALL (     652 calls)
                                       26.34s GPU  (     652 calls)
     h_psi        :     54.56s CPU     73.97s WALL (     668 calls)
                                       73.52s GPU  (     668 calls)
     g_psi        :      0.00s CPU      0.36s WALL (     532 calls)
                                        0.36s GPU  (     532 calls)

     Called by h_psi:
     h_psi:calbec :      0.34s CPU      9.97s WALL (     668 calls)
                                        9.97s GPU  (     668 calls)
     vloc_psi     :     39.43s CPU     53.99s WALL (     668 calls)
                                       53.07s GPU  (     668 calls)
     add_vuspsi   :      0.34s CPU      9.92s WALL (     668 calls)
                                        9.92s GPU  (     668 calls)

     General routines
     calbec       :      0.34s CPU      0.40s WALL (     708 calls)
     fft          :     25.79s CPU      6.58s WALL (     185 calls)
                                        0.00s GPU  (       6 calls)
     ffts         :      2.64s CPU      0.68s WALL (      16 calls)
     fftw         :      0.66s CPU     62.54s WALL (   10436 calls)
                                       46.78s GPU  (   10436 calls)
 
     Parallel routines
 
     PWSCF        :   4m22.92s CPU   4m26.75s WALL

 
   This run was terminated on:   0:24:12  23Apr2021            

=------------------------------------------------------------------------------=
   JOB DONE.
=------------------------------------------------------------------------------=
