
     Program PWSCF v.6.7MaX starts on 22Apr2021 at 23:34:55 

     This program is part of the open-source Quantum ESPRESSO suite
     for quantum simulation of materials; please cite
         "P. Giannozzi et al., J. Phys.:Condens. Matter 21 395502 (2009);
         "P. Giannozzi et al., J. Phys.:Condens. Matter 29 465901 (2017);
         "P. Giannozzi et al., J. Chem. Phys. 152 154105 (2020);
          URL http://www.quantum-espresso.org", 
     in publications or presentations arising from this work. More details at
     http://www.quantum-espresso.org/quote

     Parallel version (MPI & OpenMP), running on      16 processor cores
     Number of MPI processes:                 4
     Threads/MPI process:                     4

     MPI processes distributed on     1 nodes
     K-points division:     npool     =       4
     Reading input from ESP_34.pwi
Warning: card &CELL ignored
Warning: card / ignored

     Current dimensions of program PWSCF are:
     Max number of different atomic species (ntypx) = 10
     Max number of k-points (npk) =  40000
     Max angular momentum in pseudopotentials (lmaxx) =  3
     Message from routine read_pp_mesh:
     mesh size missing, using the one in header
     Message from routine read_pp_mesh:
     mesh size missing, using the one in header
     Message from routine read_pp_mesh:
     mesh size missing, using the one in header

     Subspace diagonalization in iterative solution of the eigenvalue problem:
     a serial algorithm will be used

 
     G-vector sticks info
     --------------------
     sticks:   dense  smooth     PW     G-vecs:    dense   smooth      PW
     Sum       12589   12589   3289              1061107  1061107  140905
 
     Using Slab Decomposition
 


     bravais-lattice index     =            0
     lattice parameter (alat)  =      23.7585  a.u.
     unit-cell volume          =   13410.8736 (a.u.)^3
     number of atoms/cell      =           40
     number of atomic types    =            3
     number of electrons       =       352.00
     number of Kohn-Sham states=          176
     kinetic-energy cutoff     =      70.0000  Ry
     charge density cutoff     =     280.0000  Ry
     scf convergence threshold =      1.0E-10
     mixing beta               =       0.7000
     number of iterations used =            8  plain     mixing
     Exchange-correlation= PBESOL
                           (   1   4  10   8   0   0   0)

     GPU acceleration is ACTIVE.


     celldm(1)=  23.758500  celldm(2)=   0.000000  celldm(3)=   0.000000
     celldm(4)=   0.000000  celldm(5)=   0.000000  celldm(6)=   0.000000

     crystal axes: (cart. coord. in units of alat)
               a(1) = (   1.000000   0.000000   0.000000 )  
               a(2) = (   0.000000   1.000000   0.000000 )  
               a(3) = (   0.000000   0.000000   1.000000 )  

     reciprocal axes: (cart. coord. in units 2 pi/alat)
               b(1) = (  1.000000  0.000000  0.000000 )  
               b(2) = (  0.000000  1.000000  0.000000 )  
               b(3) = (  0.000000  0.000000  1.000000 )  


     PseudoPot. # 1 for Cs read from file:
     /m100/home/userexternal/lmonacel/espresso/pseudo/Cs-nc-pbesol.upf
     MD5 check sum: 9d2f2206a14dc5b3b3f3fbfae186bed4
     Pseudo is Norm-conserving + core correction, Zval =  9.0
     Generated using ONCVPSP code by D. R. Hamann
     Using radial grid of 2384 points,  8 beta functions with: 
                l(1) =   0
                l(2) =   0
                l(3) =   1
                l(4) =   1
                l(5) =   2
                l(6) =   2
                l(7) =   3
                l(8) =   3

     PseudoPot. # 2 for Sn read from file:
     /m100/home/userexternal/lmonacel/espresso/pseudo/Sn-nc-pbesol.upf
     MD5 check sum: c2995d571af40102bfea7461443d92cf
     Pseudo is Norm-conserving + core correction, Zval = 14.0
     Generated using ONCVPSP code by D. R. Hamann
     Using radial grid of 1628 points,  6 beta functions with: 
                l(1) =   0
                l(2) =   0
                l(3) =   1
                l(4) =   1
                l(5) =   2
                l(6) =   2

     PseudoPot. # 3 for I  read from file:
     /m100/home/userexternal/lmonacel/espresso/pseudo/I-nc-pbesol.upf
     MD5 check sum: 80ed5ceb2eb9c553cfb6760a299d9c5b
     Pseudo is Norm-conserving + core correction, Zval =  7.0
     Generated using ONCVPSP code by D. R. Hamann
     Using radial grid of 1182 points,  6 beta functions with: 
                l(1) =   0
                l(2) =   0
                l(3) =   1
                l(4) =   1
                l(5) =   2
                l(6) =   2

     atomic species   valence    mass     pseudopotential
        Cs             9.00   132.90545     Cs( 1.00)
        Sn            14.00   118.71000     Sn( 1.00)
        I              7.00   126.90447     I ( 1.00)

     No symmetry found



   Cartesian axes

     site n.     atom                  positions (alat units)
         1           Cs  tau(   1) = (   0.2469487   0.2441376   0.2418393  )
         2           Sn  tau(   2) = (  -0.0023154  -0.0093171   0.0060725  )
         3           I   tau(   3) = (   0.2362339   0.0039760  -0.0344183  )
         4           I   tau(   4) = (  -0.0160047  -0.0117232   0.2675563  )
         5           I   tau(   5) = (   0.0156396   0.2545724   0.0406885  )
         6           Cs  tau(   6) = (   0.2607683   0.2463741   0.6796771  )
         7           Sn  tau(   7) = (   0.0038843   0.0024221   0.4923743  )
         8           I   tau(   8) = (   0.2415798  -0.0348907   0.4889739  )
         9           I   tau(   9) = (   0.0235183   0.0103123   0.7756100  )
        10           I   tau(  10) = (   0.0460353   0.2387629   0.4850533  )
        11           Cs  tau(  11) = (   0.2492394   0.7425642   0.2434123  )
        12           Sn  tau(  12) = (  -0.0129248   0.5019534   0.0254711  )
        13           I   tau(  13) = (   0.2432382   0.5204941   0.0357882  )
        14           I   tau(  14) = (  -0.0016312   0.5028111   0.2551820  )
        15           I   tau(  15) = (  -0.0132722   0.7521987  -0.0252745  )
        16           Cs  tau(  16) = (   0.2566295   0.7728976   0.7684764  )
        17           Sn  tau(  17) = (   0.0054334   0.4851153   0.5204080  )
        18           I   tau(  18) = (   0.2362758   0.4962640   0.5026914  )
        19           I   tau(  19) = (   0.0080723   0.4883463   0.7476444  )
        20           I   tau(  20) = (  -0.0207315   0.7503440   0.4889378  )
        21           Cs  tau(  21) = (   0.7669690   0.2918313   0.2589823  )
        22           Sn  tau(  22) = (   0.4996801   0.0281111   0.0038158  )
        23           I   tau(  23) = (   0.7395035   0.0194087   0.0156167  )
        24           I   tau(  24) = (   0.4939716  -0.0417578   0.2474535  )
        25           I   tau(  25) = (   0.5355659   0.2534232   0.0018477  )
        26           Cs  tau(  26) = (   0.7664593   0.2491137   0.7304971  )
        27           Sn  tau(  27) = (   0.4994365  -0.0049138   0.4935333  )
        28           I   tau(  28) = (   0.7591942   0.0311868   0.4807161  )
        29           I   tau(  29) = (   0.5284870   0.0200869   0.7391449  )
        30           I   tau(  30) = (   0.4845317   0.2528643   0.4646673  )
        31           Cs  tau(  31) = (   0.7434174   0.7109668   0.2515452  )
        32           Sn  tau(  32) = (   0.4760053   0.5204642  -0.0045718  )
        33           I   tau(  33) = (   0.7423340   0.4934354   0.0193581  )
        34           I   tau(  34) = (   0.4815928   0.5260290   0.2617532  )
        35           I   tau(  35) = (   0.4780891   0.7485437  -0.0473953  )
        36           Cs  tau(  36) = (   0.7591097   0.7620576   0.7645780  )
        37           Sn  tau(  37) = (   0.4897125   0.4983470   0.5073683  )
        38           I   tau(  38) = (   0.7278840   0.4652323   0.5259225  )
        39           I   tau(  39) = (   0.4917050   0.4766272   0.7750929  )
        40           I   tau(  40) = (   0.5247387   0.7418167   0.5096660  )

     number of k points=    32
                       cart. coord. in units 2pi/alat
        k(    1) = (   0.1250000   0.1250000   0.1250000), wk =   0.0625000
        k(    2) = (   0.1250000   0.1250000   0.3750000), wk =   0.0625000
        k(    3) = (   0.1250000   0.3750000   0.3750000), wk =   0.0625000
        k(    4) = (   0.3750000   0.3750000   0.3750000), wk =   0.0625000
        k(    5) = (  -0.1250000  -0.1250000   0.1250000), wk =   0.0625000
        k(    6) = (  -0.1250000   0.1250000  -0.1250000), wk =   0.0625000
        k(    7) = (   0.1250000  -0.1250000  -0.1250000), wk =   0.0625000
        k(    8) = (  -0.1250000  -0.1250000   0.3750000), wk =   0.0625000
        k(    9) = (  -0.1250000   0.1250000  -0.3750000), wk =   0.0625000
        k(   10) = (   0.1250000  -0.1250000  -0.3750000), wk =   0.0625000
        k(   11) = (   0.3750000  -0.1250000   0.1250000), wk =   0.0625000
        k(   12) = (  -0.3750000  -0.1250000  -0.1250000), wk =   0.0625000
        k(   13) = (   0.3750000   0.1250000  -0.1250000), wk =   0.0625000
        k(   14) = (  -0.3750000   0.1250000   0.1250000), wk =   0.0625000
        k(   15) = (  -0.1250000   0.3750000   0.1250000), wk =   0.0625000
        k(   16) = (  -0.1250000  -0.3750000  -0.1250000), wk =   0.0625000
        k(   17) = (   0.1250000   0.3750000  -0.1250000), wk =   0.0625000
        k(   18) = (   0.1250000  -0.3750000   0.1250000), wk =   0.0625000
        k(   19) = (  -0.1250000  -0.3750000   0.3750000), wk =   0.0625000
        k(   20) = (  -0.1250000   0.3750000  -0.3750000), wk =   0.0625000
        k(   21) = (   0.1250000  -0.3750000  -0.3750000), wk =   0.0625000
        k(   22) = (   0.3750000   0.1250000  -0.3750000), wk =   0.0625000
        k(   23) = (  -0.3750000  -0.1250000  -0.3750000), wk =   0.0625000
        k(   24) = (   0.3750000  -0.1250000   0.3750000), wk =   0.0625000
        k(   25) = (  -0.3750000   0.1250000   0.3750000), wk =   0.0625000
        k(   26) = (   0.3750000  -0.3750000   0.1250000), wk =   0.0625000
        k(   27) = (  -0.3750000  -0.3750000  -0.1250000), wk =   0.0625000
        k(   28) = (   0.3750000   0.3750000  -0.1250000), wk =   0.0625000
        k(   29) = (  -0.3750000   0.3750000   0.1250000), wk =   0.0625000
        k(   30) = (  -0.3750000  -0.3750000   0.3750000), wk =   0.0625000
        k(   31) = (  -0.3750000   0.3750000  -0.3750000), wk =   0.0625000
        k(   32) = (   0.3750000  -0.3750000  -0.3750000), wk =   0.0625000

     Dense  grid:  1061107 G-vectors     FFT dimensions: ( 128, 128, 128)

     Estimated max dynamical RAM per process >       6.82 GB

     Estimated total dynamical RAM >      27.27 GB

     Initial potential from superposition of free atoms

     starting charge  351.69472, renormalised to  352.00000
     Starting wfcs are  208 randomized atomic wfcs

     total cpu time spent up to now is       18.1 secs

     Self-consistent Calculation

     iteration #  1     ecut=    70.00 Ry     beta= 0.70
     Davidson diagonalization with overlap
     ethr =  1.00E-02,  avg # of iterations =  2.0

     Threshold (ethr) on eigenvalues was too large:
     Diagonalizing with lowered threshold

     Davidson diagonalization with overlap
     ethr =  2.09E-04,  avg # of iterations =  4.0

     total cpu time spent up to now is       39.2 secs

     total energy              =   -2256.02446811 Ry
     estimated scf accuracy    <       0.63090097 Ry

     iteration #  2     ecut=    70.00 Ry     beta= 0.70
     Davidson diagonalization with overlap
     ethr =  1.79E-04,  avg # of iterations =  3.1

     total cpu time spent up to now is       52.0 secs

     total energy              =   -2256.22215946 Ry
     estimated scf accuracy    <       0.26697201 Ry

     iteration #  3     ecut=    70.00 Ry     beta= 0.70
     Davidson diagonalization with overlap
     ethr =  7.58E-05,  avg # of iterations =  2.5

     total cpu time spent up to now is       63.8 secs

     total energy              =   -2256.27312736 Ry
     estimated scf accuracy    <       0.01382240 Ry

     iteration #  4     ecut=    70.00 Ry     beta= 0.70
     Davidson diagonalization with overlap
     ethr =  3.93E-06,  avg # of iterations =  4.0

     total cpu time spent up to now is       77.9 secs

     total energy              =   -2256.27847442 Ry
     estimated scf accuracy    <       0.00634012 Ry

     iteration #  5     ecut=    70.00 Ry     beta= 0.70
     Davidson diagonalization with overlap
     ethr =  1.80E-06,  avg # of iterations =  3.8

     total cpu time spent up to now is       90.2 secs

     total energy              =   -2256.27968109 Ry
     estimated scf accuracy    <       0.00094517 Ry

     iteration #  6     ecut=    70.00 Ry     beta= 0.70
     Davidson diagonalization with overlap
     ethr =  2.69E-07,  avg # of iterations =  3.9

     total cpu time spent up to now is      102.8 secs

     total energy              =   -2256.27984163 Ry
     estimated scf accuracy    <       0.00019127 Ry

     iteration #  7     ecut=    70.00 Ry     beta= 0.70
     Davidson diagonalization with overlap
     ethr =  5.43E-08,  avg # of iterations =  4.5

     total cpu time spent up to now is      116.3 secs

     total energy              =   -2256.27989913 Ry
     estimated scf accuracy    <       0.00001951 Ry

     iteration #  8     ecut=    70.00 Ry     beta= 0.70
     Davidson diagonalization with overlap
     ethr =  5.54E-09,  avg # of iterations =  4.4

     total cpu time spent up to now is      130.3 secs

     total energy              =   -2256.27990827 Ry
     estimated scf accuracy    <       0.00000311 Ry

     iteration #  9     ecut=    70.00 Ry     beta= 0.70
     Davidson diagonalization with overlap
     ethr =  8.82E-10,  avg # of iterations =  4.3

     total cpu time spent up to now is      144.2 secs

     total energy              =   -2256.27990923 Ry
     estimated scf accuracy    <       0.00000062 Ry

     iteration # 10     ecut=    70.00 Ry     beta= 0.70
     Davidson diagonalization with overlap
     ethr =  1.75E-10,  avg # of iterations =  3.2

     total cpu time spent up to now is      158.5 secs

     total energy              =   -2256.27990948 Ry
     estimated scf accuracy    <       0.00000012 Ry

     iteration # 11     ecut=    70.00 Ry     beta= 0.70
     Davidson diagonalization with overlap
     ethr =  3.38E-11,  avg # of iterations =  5.2

     total cpu time spent up to now is      173.8 secs

     total energy              =   -2256.27990954 Ry
     estimated scf accuracy    <       0.00000003 Ry

     iteration # 12     ecut=    70.00 Ry     beta= 0.70
     Davidson diagonalization with overlap
     ethr =  9.75E-12,  avg # of iterations =  3.4

     total cpu time spent up to now is      187.4 secs

     total energy              =   -2256.27990955 Ry
     estimated scf accuracy    <          5.3E-09 Ry

     iteration # 13     ecut=    70.00 Ry     beta= 0.70
     Davidson diagonalization with overlap
     ethr =  1.50E-12,  avg # of iterations =  5.8

     total cpu time spent up to now is      203.6 secs

     total energy              =   -2256.27990956 Ry
     estimated scf accuracy    <          6.2E-10 Ry

     iteration # 14     ecut=    70.00 Ry     beta= 0.70
     Davidson diagonalization with overlap
     ethr =  1.75E-13,  avg # of iterations =  4.7

     total cpu time spent up to now is      219.1 secs

     total energy              =   -2256.27990956 Ry
     estimated scf accuracy    <          1.7E-10 Ry

     iteration # 15     ecut=    70.00 Ry     beta= 0.70
     Davidson diagonalization with overlap
     ethr =  1.00E-13,  avg # of iterations =  2.4

     total cpu time spent up to now is      230.6 secs

     End of self-consistent calculation

          k = 0.1250 0.1250 0.1250 (132670 PWs)   bands (ev):

   -18.4763 -18.4020 -18.3943 -18.3723 -18.3395 -18.3330 -18.3068 -18.3066
   -18.3027 -18.3014 -18.2979 -18.2913 -18.2832 -18.2813 -18.2792 -18.2790
   -18.2785 -18.2731 -18.2691 -18.2691 -18.2615 -18.2608 -18.2561 -18.2287
   -18.2153 -18.2089 -18.2025 -18.1961 -18.1526 -18.1447 -18.1352 -18.1349
   -18.1259 -18.1240 -18.1225 -18.1153 -18.1130 -18.1099 -18.1097 -18.0978
   -18.0940 -18.0923 -18.0902 -18.0386 -18.0322 -18.0157 -18.0083 -18.0027
    -9.5491  -9.3987  -9.3164  -9.3038  -9.2164  -9.1457  -9.0924  -9.0845
    -9.0496  -9.0127  -8.9659  -8.9504  -8.9170  -8.8942  -8.8710  -8.8365
    -8.7762  -8.7423  -8.6753  -8.6592  -8.6164  -8.5723  -8.5299  -8.4692
    -5.2413  -5.2326  -5.2247  -5.1940  -5.1820  -5.1735  -5.1647  -5.1629
    -5.1502  -5.1484  -5.1431  -5.1402  -5.1358  -5.1300  -5.1265  -5.1165
    -5.1062  -5.1017  -5.0954  -5.0892  -5.0869  -5.0718  -5.0578  -5.0456
    -4.4305  -3.9493  -3.8985  -3.8617  -3.4153  -3.3599  -3.3203  -2.7912
    -0.8116  -0.7439  -0.7018  -0.6787  -0.5726  -0.5259  -0.4949  -0.4252
    -0.3932  -0.2925  -0.2464  -0.1332   0.4389   0.4555   0.4859   0.5942
     0.6418   0.6671   0.6807   0.7167   0.7338   0.8223   0.8562   0.9034
     0.9332   0.9764   1.0013   1.0181   1.0491   1.0962   1.1259   1.1883
     1.2149   1.2421   1.2448   1.2832   1.2981   1.3104   1.3470   1.3648
     1.3941   1.4059   1.4257   1.4516   1.4916   1.5089   1.5241   1.5493
     1.5577   1.5799   1.6240   1.6464   1.6686   1.6917   1.7197   1.7813
     1.8038   1.8573   1.9157   1.9365   2.0007   2.0381   2.0731   2.1056
     2.1550   2.2310   2.2724   2.3845   2.6479   2.7235   2.8514   3.1111

          k = 0.1250 0.1250 0.3750 (132608 PWs)   bands (ev):

   -18.4763 -18.4020 -18.3943 -18.3723 -18.3395 -18.3330 -18.3068 -18.3066
   -18.3027 -18.3014 -18.2979 -18.2913 -18.2832 -18.2813 -18.2792 -18.2790
   -18.2785 -18.2731 -18.2691 -18.2691 -18.2615 -18.2608 -18.2561 -18.2287
   -18.2153 -18.2089 -18.2025 -18.1961 -18.1526 -18.1447 -18.1352 -18.1349
   -18.1259 -18.1240 -18.1225 -18.1153 -18.1129 -18.1099 -18.1097 -18.0978
   -18.0940 -18.0923 -18.0902 -18.0386 -18.0322 -18.0157 -18.0083 -18.0027
    -9.5366  -9.4157  -9.3174  -9.2926  -9.2234  -9.1606  -9.0990  -9.0805
    -9.0523  -8.9958  -8.9635  -8.9529  -8.9155  -8.8921  -8.8663  -8.8479
    -8.7726  -8.7321  -8.6799  -8.6580  -8.6040  -8.5745  -8.5417  -8.4703
    -5.2412  -5.2324  -5.2245  -5.1934  -5.1816  -5.1735  -5.1646  -5.1621
    -5.1503  -5.1480  -5.1439  -5.1398  -5.1364  -5.1304  -5.1264  -5.1171
    -5.1059  -5.1012  -5.0958  -5.0902  -5.0871  -5.0720  -5.0578  -5.0455
    -4.3067  -4.0848  -3.7976  -3.7467  -3.5693  -3.5298  -3.2206  -2.9984
    -0.7556  -0.7054  -0.6343  -0.5736  -0.5141  -0.4844  -0.4142  -0.3570
    -0.2061  -0.0590   0.0334   0.1368   0.3453   0.4384   0.4833   0.5077
     0.5206   0.5448   0.5965   0.6077   0.6754   0.6953   0.7736   0.7871
     0.8367   0.9013   0.9524   1.0192   1.0367   1.0659   1.0720   1.1274
     1.1623   1.2448   1.2539   1.2864   1.3089   1.3267   1.3450   1.3853
     1.4024   1.4120   1.4369   1.4600   1.4906   1.5000   1.5288   1.5546
     1.5747   1.6185   1.6340   1.6475   1.6771   1.7067   1.7317   1.7719
     1.8160   1.8432   1.8782   1.9065   1.9604   2.0272   2.0515   2.0750
     2.1014   2.1594   2.2395   2.3485   2.4283   2.5479   2.7762   2.8811

          k = 0.1250 0.3750 0.3750 (132616 PWs)   bands (ev):

   -18.4763 -18.4020 -18.3943 -18.3723 -18.3395 -18.3330 -18.3068 -18.3066
   -18.3027 -18.3014 -18.2979 -18.2913 -18.2832 -18.2813 -18.2792 -18.2790
   -18.2785 -18.2731 -18.2691 -18.2691 -18.2615 -18.2608 -18.2561 -18.2287
   -18.2153 -18.2089 -18.2025 -18.1961 -18.1526 -18.1447 -18.1352 -18.1349
   -18.1259 -18.1240 -18.1225 -18.1153 -18.1129 -18.1099 -18.1097 -18.0978
   -18.0940 -18.0923 -18.0902 -18.0386 -18.0322 -18.0157 -18.0083 -18.0027
    -9.5300  -9.4095  -9.3288  -9.2899  -9.2330  -9.1494  -9.1109  -9.0859
    -9.0626  -8.9976  -8.9861  -8.9480  -8.9037  -8.8851  -8.8507  -8.8236
    -8.7713  -8.7284  -8.6961  -8.6578  -8.6047  -8.5766  -8.5427  -8.4724
    -5.2412  -5.2324  -5.2244  -5.1931  -5.1803  -5.1755  -5.1642  -5.1621
    -5.1505  -5.1485  -5.1437  -5.1395  -5.1372  -5.1303  -5.1266  -5.1157
    -5.1062  -5.1010  -5.0957  -5.0904  -5.0873  -5.0720  -5.0577  -5.0456
    -4.2010  -4.0093  -3.9111  -3.7356  -3.6081  -3.4624  -3.3494  -3.1720
    -0.7214  -0.6713  -0.5169  -0.4707  -0.4331  -0.2628  -0.2272  -0.1242
    -0.0674   0.0154   0.0632   0.1440   0.3010   0.3554   0.4187   0.4509
     0.4990   0.5242   0.5479   0.5959   0.6239   0.6367   0.6729   0.7030
     0.7709   0.8817   0.9078   0.9414   0.9821   1.0237   1.0565   1.0650
     1.1333   1.1597   1.1847   1.2188   1.2648   1.2863   1.3167   1.3448
     1.3897   1.4224   1.4400   1.4692   1.4971   1.5158   1.5346   1.5700
     1.6053   1.6317   1.6648   1.7026   1.7407   1.7607   1.7694   1.7968
     1.8281   1.8578   1.8830   1.9276   1.9492   1.9648   2.0078   2.0319
     2.0575   2.1183   2.1605   2.2460   2.3115   2.5062   2.5867   2.7021

          k = 0.3750 0.3750 0.3750 (132612 PWs)   bands (ev):

   -18.4763 -18.4020 -18.3943 -18.3723 -18.3395 -18.3330 -18.3068 -18.3066
   -18.3027 -18.3014 -18.2979 -18.2913 -18.2832 -18.2813 -18.2792 -18.2790
   -18.2785 -18.2731 -18.2691 -18.2691 -18.2615 -18.2608 -18.2561 -18.2287
   -18.2153 -18.2089 -18.2025 -18.1961 -18.1526 -18.1447 -18.1352 -18.1349
   -18.1259 -18.1240 -18.1225 -18.1153 -18.1129 -18.1099 -18.1097 -18.0978
   -18.0940 -18.0923 -18.0902 -18.0386 -18.0322 -18.0157 -18.0083 -18.0027
    -9.5255  -9.3926  -9.3368  -9.3049  -9.2292  -9.1784  -9.1157  -9.0705
    -9.0458  -9.0163  -8.9865  -8.9491  -8.8926  -8.8677  -8.8543  -8.8306
    -8.7709  -8.7283  -8.6970  -8.6443  -8.6000  -8.5771  -8.5571  -8.4734
    -5.2412  -5.2324  -5.2247  -5.1934  -5.1793  -5.1771  -5.1641  -5.1620
    -5.1497  -5.1485  -5.1433  -5.1405  -5.1365  -5.1313  -5.1258  -5.1153
    -5.1076  -5.1004  -5.0951  -5.0902  -5.0869  -5.0718  -5.0576  -5.0458
    -4.0909  -3.9286  -3.8297  -3.7388  -3.6456  -3.5826  -3.4960  -3.3500
    -0.5094  -0.4405  -0.3343  -0.2962  -0.2733  -0.2085  -0.1315  -0.0719
    -0.0324   0.0116   0.1202   0.1930   0.2380   0.3393   0.3741   0.4016
     0.4213   0.4705   0.4906   0.5256   0.5437   0.5689   0.6270   0.6633
     0.7959   0.8583   0.8823   0.9199   0.9646   0.9969   1.0193   1.0444
     1.0794   1.0849   1.1189   1.1437   1.2183   1.2295   1.2920   1.3246
     1.3811   1.4226   1.4486   1.5172   1.5312   1.5404   1.5658   1.5942
     1.6196   1.6706   1.6866   1.7069   1.7285   1.7709   1.7908   1.8051
     1.8159   1.8638   1.8814   1.8954   1.9359   1.9568   1.9772   2.0163
     2.0478   2.0674   2.0971   2.1357   2.2172   2.2774   2.3026   2.4862

          k =-0.1250-0.1250 0.1250 (132670 PWs)   bands (ev):

   -18.4763 -18.4020 -18.3943 -18.3723 -18.3395 -18.3330 -18.3068 -18.3066
   -18.3027 -18.3014 -18.2979 -18.2913 -18.2832 -18.2813 -18.2792 -18.2790
   -18.2785 -18.2731 -18.2691 -18.2691 -18.2615 -18.2608 -18.2561 -18.2287
   -18.2153 -18.2089 -18.2025 -18.1961 -18.1526 -18.1447 -18.1352 -18.1349
   -18.1259 -18.1240 -18.1225 -18.1153 -18.1130 -18.1099 -18.1097 -18.0978
   -18.0940 -18.0923 -18.0902 -18.0386 -18.0322 -18.0157 -18.0083 -18.0027
    -9.5493  -9.3975  -9.3200  -9.3005  -9.2176  -9.1462  -9.0979  -9.0820
    -9.0425  -9.0128  -8.9676  -8.9551  -8.9121  -8.8938  -8.8712  -8.8394
    -8.7766  -8.7408  -8.6713  -8.6635  -8.6161  -8.5723  -8.5298  -8.4693
    -5.2413  -5.2327  -5.2246  -5.1938  -5.1817  -5.1735  -5.1650  -5.1629
    -5.1506  -5.1482  -5.1431  -5.1405  -5.1352  -5.1296  -5.1265  -5.1168
    -5.1065  -5.1016  -5.0952  -5.0892  -5.0869  -5.0717  -5.0578  -5.0456
    -4.4311  -3.9295  -3.9066  -3.8758  -3.3943  -3.3640  -3.3360  -2.7889
    -0.7867  -0.7754  -0.7006  -0.6838  -0.5709  -0.5198  -0.5046  -0.4186
    -0.3881  -0.3010  -0.2314  -0.1370   0.4392   0.4590   0.4817   0.5881
     0.6398   0.6682   0.6962   0.7113   0.7340   0.8302   0.8746   0.8978
     0.9130   0.9562   0.9835   1.0109   1.0861   1.1064   1.1598   1.1870
     1.2015   1.2213   1.2539   1.2621   1.2898   1.3109   1.3569   1.3623
     1.3922   1.4257   1.4470   1.4541   1.4712   1.5108   1.5257   1.5378
     1.5654   1.5830   1.5998   1.6533   1.6657   1.6849   1.7109   1.7856
     1.8056   1.8589   1.9099   1.9348   2.0066   2.0410   2.0568   2.1207
     2.1538   2.2481   2.2595   2.3808   2.6538   2.7329   2.8472   3.1249

          k =-0.1250 0.1250-0.1250 (132670 PWs)   bands (ev):

   -18.4763 -18.4020 -18.3943 -18.3723 -18.3395 -18.3330 -18.3068 -18.3066
   -18.3027 -18.3014 -18.2979 -18.2913 -18.2832 -18.2813 -18.2792 -18.2790
   -18.2785 -18.2731 -18.2691 -18.2691 -18.2615 -18.2608 -18.2561 -18.2287
   -18.2153 -18.2089 -18.2025 -18.1961 -18.1526 -18.1447 -18.1352 -18.1349
   -18.1259 -18.1240 -18.1225 -18.1153 -18.1130 -18.1099 -18.1097 -18.0978
   -18.0940 -18.0923 -18.0902 -18.0386 -18.0322 -18.0157 -18.0083 -18.0027
    -9.5492  -9.3974  -9.3261  -9.2925  -9.2184  -9.1505  -9.0945  -9.0813
    -9.0419  -9.0146  -8.9713  -8.9489  -8.9091  -8.8987  -8.8736  -8.8386
    -8.7757  -8.7405  -8.6707  -8.6640  -8.6165  -8.5716  -8.5302  -8.4693
    -5.2413  -5.2326  -5.2246  -5.1938  -5.1818  -5.1737  -5.1647  -5.1633
    -5.1503  -5.1482  -5.1433  -5.1401  -5.1354  -5.1299  -5.1265  -5.1170
    -5.1065  -5.1016  -5.0951  -5.0893  -5.0869  -5.0715  -5.0579  -5.0456
    -4.4314  -3.9358  -3.9070  -3.8676  -3.4066  -3.3589  -3.3283  -2.7918
    -0.7991  -0.7329  -0.7040  -0.6837  -0.5881  -0.5101  -0.5005  -0.4393
    -0.4076  -0.2875  -0.2390  -0.1308   0.4378   0.4586   0.4842   0.5952
     0.6366   0.6594   0.6792   0.7238   0.7491   0.8137   0.8757   0.9067
     0.9278   0.9643   1.0015   1.0221   1.0793   1.1219   1.1293   1.1587
     1.1869   1.2117   1.2394   1.2568   1.2953   1.3422   1.3492   1.3596
     1.3985   1.4162   1.4410   1.4782   1.4881   1.4932   1.5143   1.5263
     1.5755   1.5952   1.6079   1.6407   1.6655   1.6919   1.7194   1.7864
     1.8116   1.8587   1.9136   1.9379   2.0096   2.0475   2.0901   2.1011
     2.1441   2.2285   2.2475   2.3822   2.6579   2.7238   2.8469   3.1203

          k = 0.1250-0.1250-0.1250 (132670 PWs)   bands (ev):

   -18.4763 -18.4020 -18.3943 -18.3723 -18.3395 -18.3330 -18.3068 -18.3066
   -18.3027 -18.3014 -18.2979 -18.2913 -18.2832 -18.2813 -18.2791 -18.2790
   -18.2785 -18.2731 -18.2691 -18.2691 -18.2615 -18.2608 -18.2561 -18.2287
   -18.2153 -18.2089 -18.2025 -18.1961 -18.1526 -18.1447 -18.1352 -18.1349
   -18.1259 -18.1240 -18.1225 -18.1153 -18.1130 -18.1099 -18.1097 -18.0978
   -18.0940 -18.0923 -18.0902 -18.0386 -18.0322 -18.0157 -18.0083 -18.0027
    -9.5493  -9.3966  -9.3175  -9.3060  -9.2149  -9.1443  -9.1031  -9.0765
    -9.0467  -9.0098  -8.9713  -8.9495  -8.9117  -8.9010  -8.8713  -8.8359
    -8.7764  -8.7410  -8.6724  -8.6621  -8.6161  -8.5723  -8.5300  -8.4693
    -5.2413  -5.2327  -5.2246  -5.1935  -5.1820  -5.1736  -5.1649  -5.1631
    -5.1507  -5.1478  -5.1428  -5.1409  -5.1354  -5.1301  -5.1264  -5.1165
    -5.1061  -5.1018  -5.0952  -5.0891  -5.0871  -5.0715  -5.0579  -5.0457
    -4.4316  -3.9390  -3.8923  -3.8791  -3.3966  -3.3760  -3.3212  -2.7913
    -0.8078  -0.7495  -0.6945  -0.6792  -0.5703  -0.5113  -0.5011  -0.4497
    -0.3853  -0.2931  -0.2473  -0.1352   0.4385   0.4578   0.4810   0.5985
     0.6425   0.6564   0.6842   0.7181   0.7350   0.8380   0.8750   0.9174
     0.9370   0.9635   0.9902   1.0020   1.0716   1.1212   1.1401   1.1699
     1.1822   1.2205   1.2426   1.2668   1.2941   1.3281   1.3340   1.3593
     1.3706   1.4142   1.4491   1.4661   1.4825   1.5053   1.5304   1.5495
     1.5677   1.5851   1.6168   1.6528   1.6685   1.6994   1.7163   1.7837
     1.7992   1.8427   1.9155   1.9335   2.0275   2.0356   2.0621   2.1059
     2.1482   2.2354   2.2733   2.3870   2.6459   2.7520   2.8275   3.1062

          k =-0.1250-0.1250 0.3750 (132608 PWs)   bands (ev):

   -18.4763 -18.4020 -18.3943 -18.3723 -18.3395 -18.3330 -18.3068 -18.3066
   -18.3027 -18.3014 -18.2979 -18.2913 -18.2832 -18.2813 -18.2792 -18.2790
   -18.2785 -18.2731 -18.2691 -18.2691 -18.2615 -18.2608 -18.2561 -18.2287
   -18.2153 -18.2089 -18.2025 -18.1961 -18.1526 -18.1447 -18.1352 -18.1349
   -18.1259 -18.1240 -18.1225 -18.1153 -18.1129 -18.1099 -18.1097 -18.0978
   -18.0940 -18.0923 -18.0902 -18.0386 -18.0322 -18.0157 -18.0083 -18.0027
    -9.5369  -9.4144  -9.3200  -9.2902  -9.2237  -9.1625  -9.1009  -9.0802
    -9.0475  -8.9923  -8.9669  -8.9584  -8.9090  -8.8918  -8.8682  -8.8498
    -8.7730  -8.7308  -8.6781  -8.6598  -8.6040  -8.5745  -8.5417  -8.4704
    -5.2412  -5.2324  -5.2245  -5.1932  -5.1813  -5.1735  -5.1648  -5.1622
    -5.1509  -5.1480  -5.1439  -5.1402  -5.1358  -5.1301  -5.1263  -5.1173
    -5.1062  -5.1011  -5.0956  -5.0901  -5.0872  -5.0719  -5.0579  -5.0455
    -4.3089  -4.0775  -3.8090  -3.7469  -3.5635  -3.5243  -3.2307  -2.9927
    -0.7542  -0.7188  -0.6359  -0.5658  -0.5055  -0.4680  -0.4374  -0.3266
    -0.2523  -0.0512   0.0359   0.1458   0.3578   0.4403   0.4757   0.4964
     0.5350   0.5569   0.5907   0.6138   0.6636   0.7006   0.7619   0.7848
     0.8556   0.8794   0.9627   0.9935   1.0050   1.0768   1.1054   1.1429
     1.1898   1.2231   1.2496   1.2764   1.2976   1.3157   1.3615   1.3752
     1.4052   1.4114   1.4369   1.4750   1.4952   1.5011   1.5520   1.5568
     1.5781   1.5965   1.6296   1.6437   1.6603   1.6975   1.7192   1.7616
     1.8238   1.8564   1.8753   1.9156   1.9655   2.0207   2.0522   2.0930
     2.1168   2.1419   2.2375   2.3080   2.4771   2.5409   2.7764   2.8868

          k =-0.1250 0.1250-0.3750 (132608 PWs)   bands (ev):

   -18.4763 -18.4020 -18.3943 -18.3723 -18.3395 -18.3330 -18.3068 -18.3066
   -18.3027 -18.3014 -18.2979 -18.2913 -18.2832 -18.2813 -18.2791 -18.2790
   -18.2785 -18.2731 -18.2691 -18.2691 -18.2615 -18.2608 -18.2561 -18.2287
   -18.2153 -18.2089 -18.2025 -18.1961 -18.1526 -18.1447 -18.1352 -18.1349
   -18.1259 -18.1240 -18.1225 -18.1153 -18.1129 -18.1099 -18.1097 -18.0978
   -18.0940 -18.0923 -18.0902 -18.0386 -18.0322 -18.0157 -18.0083 -18.0027
    -9.5367  -9.4152  -9.3216  -9.2856  -9.2242  -9.1687  -9.0934  -9.0806
    -9.0490  -8.9966  -8.9678  -8.9511  -8.9093  -8.8958  -8.8692  -8.8489
    -8.7719  -8.7308  -8.6790  -8.6591  -8.6040  -8.5737  -8.5424  -8.4704
    -5.2412  -5.2323  -5.2245  -5.1932  -5.1813  -5.1737  -5.1646  -5.1625
    -5.1504  -5.1480  -5.1439  -5.1400  -5.1360  -5.1302  -5.1264  -5.1175
    -5.1063  -5.1010  -5.0954  -5.0903  -5.0871  -5.0717  -5.0580  -5.0455
    -4.3082  -4.0819  -3.7939  -3.7558  -3.5721  -3.5184  -3.2268  -2.9972
    -0.7354  -0.6987  -0.6553  -0.5861  -0.5042  -0.4793  -0.4203  -0.3446
    -0.2371  -0.0636   0.0453   0.1442   0.3463   0.4486   0.4786   0.5043
     0.5244   0.5428   0.5951   0.6080   0.6733   0.6957   0.7626   0.7984
     0.8456   0.8905   0.9641   0.9960   1.0469   1.0785   1.1080   1.1401
     1.1606   1.1966   1.2265   1.2692   1.3063   1.3216   1.3607   1.3846
     1.4050   1.4227   1.4474   1.4638   1.4771   1.4991   1.5469   1.5580
     1.5923   1.6069   1.6284   1.6446   1.6778   1.7033   1.7153   1.7794
     1.8083   1.8554   1.8755   1.9114   1.9596   2.0336   2.0648   2.0744
     2.1167   2.1438   2.2315   2.3122   2.4573   2.5478   2.7611   2.8968

          k = 0.1250-0.1250-0.3750 (132608 PWs)   bands (ev):

   -18.4763 -18.4020 -18.3943 -18.3723 -18.3395 -18.3330 -18.3068 -18.3066
   -18.3027 -18.3014 -18.2979 -18.2913 -18.2832 -18.2813 -18.2792 -18.2790
   -18.2785 -18.2731 -18.2691 -18.2691 -18.2615 -18.2608 -18.2561 -18.2287
   -18.2153 -18.2089 -18.2025 -18.1961 -18.1526 -18.1447 -18.1352 -18.1349
   -18.1259 -18.1240 -18.1225 -18.1153 -18.1129 -18.1099 -18.1097 -18.0978
   -18.0940 -18.0923 -18.0902 -18.0386 -18.0322 -18.0157 -18.0083 -18.0027
    -9.5369  -9.4143  -9.3148  -9.2982  -9.2206  -9.1633  -9.1002  -9.0768
    -9.0513  -8.9938  -8.9647  -8.9549  -8.9119  -8.8983  -8.8665  -8.8464
    -8.7725  -8.7313  -8.6799  -8.6578  -8.6034  -8.5751  -8.5419  -8.4704
    -5.2412  -5.2325  -5.2244  -5.1929  -5.1815  -5.1736  -5.1647  -5.1624
    -5.1508  -5.1476  -5.1435  -5.1407  -5.1359  -5.1304  -5.1264  -5.1170
    -5.1059  -5.1013  -5.0956  -5.0901  -5.0873  -5.0717  -5.0580  -5.0455
    -4.3089  -4.0806  -3.7922  -3.7599  -3.5679  -3.5210  -3.2271  -2.9966
    -0.7473  -0.6855  -0.6571  -0.5949  -0.5005  -0.4693  -0.4388  -0.3299
    -0.2308  -0.0504   0.0253   0.1397   0.3533   0.4289   0.4765   0.4983
     0.5309   0.5591   0.5949   0.6251   0.6621   0.7103   0.7457   0.8004
     0.8569   0.8998   0.9539   0.9840   1.0571   1.0731   1.0932   1.1264
     1.1692   1.2070   1.2507   1.2712   1.2927   1.3315   1.3432   1.3608
     1.3905   1.4276   1.4505   1.4676   1.4899   1.5021   1.5443   1.5660
     1.5890   1.6125   1.6283   1.6592   1.6828   1.7038   1.7107   1.7586
     1.8164   1.8398   1.8852   1.9117   1.9678   2.0070   2.0607   2.0845
     2.1041   2.1638   2.2378   2.3381   2.4437   2.5395   2.7861   2.8668

          k = 0.3750-0.1250 0.1250 (132608 PWs)   bands (ev):

   -18.4763 -18.4020 -18.3943 -18.3723 -18.3395 -18.3330 -18.3068 -18.3066
   -18.3027 -18.3014 -18.2979 -18.2913 -18.2832 -18.2813 -18.2792 -18.2790
   -18.2785 -18.2731 -18.2691 -18.2691 -18.2615 -18.2608 -18.2561 -18.2287
   -18.2153 -18.2089 -18.2025 -18.1961 -18.1526 -18.1447 -18.1352 -18.1349
   -18.1259 -18.1240 -18.1225 -18.1153 -18.1130 -18.1099 -18.1097 -18.0978
   -18.0940 -18.0923 -18.0902 -18.0386 -18.0322 -18.0157 -18.0083 -18.0027
    -9.5419  -9.3853  -9.3461  -9.2944  -9.2163  -9.1720  -9.0949  -9.0722
    -9.0393  -9.0113  -8.9767  -8.9509  -8.9034  -8.8944  -8.8716  -8.8344
    -8.7785  -8.7419  -8.6706  -8.6562  -8.5996  -8.5732  -8.5494  -8.4705
    -5.2412  -5.2324  -5.2247  -5.1930  -5.1795  -5.1764  -5.1641  -5.1632
    -5.1499  -5.1479  -5.1429  -5.1406  -5.1355  -5.1310  -5.1259  -5.1168
    -5.1072  -5.1010  -5.0952  -5.0896  -5.0870  -5.0719  -5.0580  -5.0460
    -4.3139  -4.0657  -3.7925  -3.7707  -3.5582  -3.5226  -3.2393  -2.9985
    -0.7609  -0.6753  -0.6489  -0.5693  -0.5012  -0.4663  -0.3925  -0.2989
    -0.2298  -0.0935  -0.0333   0.1095   0.3782   0.4446   0.4746   0.4980
     0.5281   0.5705   0.6141   0.6433   0.6654   0.7077   0.7358   0.7802
     0.8619   0.8863   0.9544   0.9798   1.0251   1.0559   1.0631   1.1292
     1.1507   1.1854   1.2474   1.2818   1.2969   1.3461   1.3688   1.3835
     1.4080   1.4414   1.4588   1.4752   1.4998   1.5151   1.5338   1.5563
     1.5761   1.6117   1.6341   1.6497   1.6713   1.7133   1.7513   1.7668
     1.8049   1.8373   1.8618   1.8850   1.9287   2.0113   2.0552   2.0835
     2.1376   2.1675   2.2499   2.3346   2.4345   2.5065   2.7588   2.8887

          k =-0.3750-0.1250-0.1250 (132608 PWs)   bands (ev):

   -18.4763 -18.4020 -18.3943 -18.3723 -18.3395 -18.3330 -18.3068 -18.3066
   -18.3027 -18.3014 -18.2979 -18.2913 -18.2832 -18.2813 -18.2792 -18.2790
   -18.2785 -18.2731 -18.2691 -18.2691 -18.2615 -18.2608 -18.2561 -18.2287
   -18.2153 -18.2089 -18.2025 -18.1961 -18.1526 -18.1447 -18.1352 -18.1349
   -18.1259 -18.1240 -18.1225 -18.1153 -18.1130 -18.1099 -18.1097 -18.0978
   -18.0940 -18.0923 -18.0902 -18.0386 -18.0322 -18.0157 -18.0083 -18.0027
    -9.5418  -9.3881  -9.3382  -9.3027  -9.2155  -9.1658  -9.0964  -9.0731
    -9.0414  -9.0147  -8.9731  -8.9503  -8.9105  -8.8906  -8.8681  -8.8327
    -8.7791  -8.7436  -8.6728  -8.6537  -8.5997  -8.5738  -8.5490  -8.4703
    -5.2412  -5.2324  -5.2247  -5.1933  -5.1798  -5.1761  -5.1642  -5.1628
    -5.1497  -5.1481  -5.1429  -5.1406  -5.1358  -5.1311  -5.1259  -5.1163
    -5.1070  -5.1011  -5.0955  -5.0895  -5.0869  -5.0722  -5.0579  -5.0460
    -4.3120  -4.0689  -3.8028  -3.7569  -3.5658  -3.5161  -3.2419  -2.9964
    -0.7836  -0.6555  -0.6377  -0.5766  -0.4969  -0.4760  -0.3960  -0.3131
    -0.2079  -0.0893  -0.0157   0.1065   0.3665   0.4389   0.4661   0.4997
     0.5328   0.5715   0.5989   0.6469   0.6683   0.6988   0.7330   0.7753
     0.8597   0.8843   0.9418   1.0126   1.0298   1.0492   1.0687   1.1407
     1.1695   1.2241   1.2446   1.2512   1.2704   1.3306   1.3558   1.3953
     1.4246   1.4345   1.4567   1.4763   1.4931   1.5198   1.5400   1.5595
     1.5875   1.6064   1.6211   1.6669   1.6862   1.7034   1.7424   1.7706
     1.7952   1.8317   1.8613   1.8761   1.9446   1.9932   2.0521   2.0801
     2.1369   2.1764   2.2839   2.3117   2.4298   2.5271   2.7470   2.8811

          k = 0.3750 0.1250-0.1250 (132608 PWs)   bands (ev):

   -18.4763 -18.4020 -18.3943 -18.3723 -18.3395 -18.3330 -18.3068 -18.3066
   -18.3027 -18.3014 -18.2979 -18.2913 -18.2832 -18.2813 -18.2792 -18.2790
   -18.2785 -18.2731 -18.2691 -18.2691 -18.2615 -18.2608 -18.2561 -18.2287
   -18.2153 -18.2089 -18.2025 -18.1961 -18.1526 -18.1447 -18.1352 -18.1349
   -18.1259 -18.1240 -18.1225 -18.1153 -18.1130 -18.1099 -18.1097 -18.0978
   -18.0940 -18.0923 -18.0902 -18.0386 -18.0322 -18.0157 -18.0083 -18.0027
    -9.5420  -9.3858  -9.3418  -9.3003  -9.2154  -9.1683  -9.1008  -9.0690
    -9.0382  -9.0119  -8.9776  -8.9511  -8.9066  -8.8913  -8.8699  -8.8338
    -8.7798  -8.7421  -8.6710  -8.6558  -8.5992  -8.5743  -8.5487  -8.4704
    -5.2412  -5.2325  -5.2247  -5.1931  -5.1796  -5.1760  -5.1644  -5.1629
    -5.1504  -5.1478  -5.1426  -5.1412  -5.1353  -5.1308  -5.1259  -5.1166
    -5.1072  -5.1010  -5.0953  -5.0895  -5.0870  -5.0721  -5.0580  -5.0460
    -4.3137  -4.0639  -3.7895  -3.7802  -3.5442  -3.5296  -3.2465  -2.9930
    -0.7530  -0.6896  -0.6699  -0.5531  -0.4881  -0.4851  -0.3834  -0.3218
    -0.1995  -0.0793  -0.0191   0.1019   0.3777   0.4294   0.4634   0.4883
     0.5363   0.5755   0.5916   0.6541   0.6732   0.7036   0.7513   0.7681
     0.8604   0.8964   0.9265   0.9999   1.0233   1.0530   1.0658   1.1343
     1.1668   1.1962   1.2371   1.2708   1.3115   1.3247   1.3761   1.3931
     1.4181   1.4389   1.4547   1.4687   1.4861   1.5158   1.5332   1.5621
     1.5820   1.6076   1.6311   1.6643   1.6813   1.6880   1.7464   1.7638
     1.7990   1.8429   1.8594   1.8890   1.9359   1.9907   2.0200   2.0881
     2.1457   2.2013   2.2785   2.3094   2.4446   2.5029   2.7728   2.8787

          k =-0.3750 0.1250 0.1250 (132608 PWs)   bands (ev):

   -18.4763 -18.4020 -18.3943 -18.3723 -18.3395 -18.3330 -18.3068 -18.3066
   -18.3027 -18.3014 -18.2979 -18.2913 -18.2832 -18.2813 -18.2792 -18.2790
   -18.2785 -18.2731 -18.2691 -18.2691 -18.2615 -18.2608 -18.2561 -18.2287
   -18.2153 -18.2089 -18.2025 -18.1961 -18.1526 -18.1447 -18.1352 -18.1349
   -18.1259 -18.1240 -18.1225 -18.1153 -18.1130 -18.1099 -18.1097 -18.0978
   -18.0940 -18.0923 -18.0902 -18.0386 -18.0322 -18.0157 -18.0083 -18.0027
    -9.5421  -9.3838  -9.3432  -9.3030  -9.2141  -9.1660  -9.0974  -9.0763
    -9.0363  -9.0089  -8.9785  -8.9530  -8.9050  -8.8946  -8.8694  -8.8325
    -8.7793  -8.7423  -8.6712  -8.6555  -8.5985  -8.5746  -8.5491  -8.4704
    -5.2412  -5.2325  -5.2246  -5.1927  -5.1796  -5.1763  -5.1645  -5.1630
    -5.1503  -5.1476  -5.1426  -5.1413  -5.1354  -5.1312  -5.1258  -5.1163
    -5.1069  -5.1012  -5.0953  -5.0894  -5.0871  -5.0719  -5.0580  -5.0460
    -4.3149  -4.0614  -3.8135  -3.7548  -3.5567  -3.5194  -3.2441  -2.9963
    -0.7835  -0.6621  -0.6460  -0.5491  -0.4986  -0.4673  -0.3935  -0.3223
    -0.2282  -0.0808  -0.0347   0.1053   0.3852   0.4380   0.4676   0.5000
     0.5387   0.5569   0.6052   0.6538   0.6712   0.6962   0.7448   0.7865
     0.8612   0.8966   0.9417   0.9935   1.0035   1.0629   1.0709   1.1446
     1.1835   1.2008   1.2334   1.2436   1.2740   1.3193   1.3601   1.3784
     1.4051   1.4424   1.4659   1.4746   1.4922   1.5266   1.5480   1.5746
     1.5900   1.6158   1.6439   1.6613   1.6715   1.7052   1.7413   1.7620
     1.7765   1.8512   1.8625   1.8904   1.9239   1.9989   2.0332   2.0907
     2.1335   2.1891   2.2622   2.3312   2.4603   2.5000   2.7527   2.8713

          k =-0.1250 0.3750 0.1250 (132608 PWs)   bands (ev):

   -18.4763 -18.4020 -18.3943 -18.3723 -18.3395 -18.3330 -18.3068 -18.3066
   -18.3027 -18.3014 -18.2979 -18.2913 -18.2832 -18.2813 -18.2791 -18.2790
   -18.2785 -18.2731 -18.2691 -18.2691 -18.2615 -18.2608 -18.2561 -18.2287
   -18.2153 -18.2089 -18.2025 -18.1961 -18.1526 -18.1447 -18.1352 -18.1349
   -18.1259 -18.1240 -18.1225 -18.1153 -18.1130 -18.1099 -18.1097 -18.0978
   -18.0940 -18.0923 -18.0902 -18.0386 -18.0322 -18.0157 -18.0083 -18.0027
    -9.5411  -9.3997  -9.3192  -9.3050  -9.2215  -9.1322  -9.1243  -9.0775
    -9.0581  -9.0078  -8.9875  -8.9504  -8.9097  -8.8883  -8.8485  -8.8192
    -8.7793  -8.7276  -8.6931  -8.6609  -8.6144  -8.5776  -8.5302  -8.4719
    -5.2411  -5.2326  -5.2245  -5.1931  -5.1801  -5.1754  -5.1641  -5.1629
    -5.1508  -5.1482  -5.1428  -5.1411  -5.1362  -5.1305  -5.1263  -5.1157
    -5.1071  -5.1017  -5.0951  -5.0893  -5.0873  -5.0716  -5.0578  -5.0459
    -4.3255  -4.0656  -3.8021  -3.7801  -3.5343  -3.5226  -3.2160  -2.9860
    -0.7871  -0.7392  -0.6778  -0.6210  -0.5247  -0.4327  -0.3223  -0.2500
    -0.1824  -0.0866  -0.0449   0.0406   0.3893   0.4340   0.4641   0.4880
     0.5291   0.5697   0.5987   0.6417   0.6540   0.6955   0.7495   0.7801
     0.8368   0.8814   0.9558   0.9955   1.0291   1.0757   1.1263   1.1533
     1.1784   1.1961   1.2198   1.2421   1.2653   1.2846   1.3280   1.3512
     1.3795   1.4110   1.4440   1.4791   1.4912   1.5084   1.5269   1.5643
     1.5821   1.6367   1.6768   1.7031   1.7293   1.7422   1.7657   1.7969
     1.8275   1.8558   1.8869   1.9221   1.9387   1.9874   2.0176   2.0435
     2.0974   2.1899   2.2598   2.3542   2.4100   2.6654   2.7994   2.8828

          k =-0.1250-0.3750-0.1250 (132608 PWs)   bands (ev):

   -18.4763 -18.4020 -18.3943 -18.3723 -18.3395 -18.3330 -18.3068 -18.3066
   -18.3027 -18.3014 -18.2979 -18.2913 -18.2832 -18.2813 -18.2791 -18.2790
   -18.2785 -18.2731 -18.2691 -18.2691 -18.2615 -18.2608 -18.2561 -18.2287
   -18.2153 -18.2089 -18.2025 -18.1961 -18.1526 -18.1447 -18.1352 -18.1349
   -18.1259 -18.1240 -18.1225 -18.1153 -18.1130 -18.1099 -18.1097 -18.0978
   -18.0940 -18.0923 -18.0902 -18.0386 -18.0322 -18.0157 -18.0083 -18.0027
    -9.5408  -9.4014  -9.3205  -9.3011  -9.2224  -9.1364  -9.1131  -9.0854
    -9.0609  -9.0068  -8.9850  -8.9498  -8.9133  -8.8849  -8.8479  -8.8184
    -8.7799  -8.7289  -8.6937  -8.6602  -8.6146  -8.5776  -8.5300  -8.4718
    -5.2411  -5.2326  -5.2245  -5.1936  -5.1803  -5.1752  -5.1640  -5.1625
    -5.1503  -5.1488  -5.1431  -5.1401  -5.1367  -5.1304  -5.1264  -5.1156
    -5.1073  -5.1016  -5.0953  -5.0894  -5.0871  -5.0719  -5.0577  -5.0458
    -4.3236  -4.0674  -3.8182  -3.7627  -3.5521  -3.5043  -3.2198  -2.9839
    -0.8004  -0.7206  -0.6824  -0.6299  -0.5110  -0.4464  -0.3292  -0.2401
    -0.1660  -0.0881  -0.0492   0.0483   0.3848   0.4374   0.4630   0.4850
     0.5135   0.5669   0.6016   0.6429   0.6525   0.7029   0.7418   0.7717
     0.8261   0.8877   0.9702   0.9937   1.0203   1.0743   1.1123   1.1327
     1.1811   1.2062   1.2301   1.2522   1.2722   1.3077   1.3397   1.3636
     1.3949   1.4199   1.4388   1.4548   1.4795   1.5099   1.5204   1.5725
     1.5873   1.6237   1.6510   1.7083   1.7301   1.7545   1.7678   1.7965
     1.8246   1.8575   1.8823   1.9259   1.9370   1.9804   2.0114   2.0647
     2.1005   2.1846   2.2549   2.3531   2.4087   2.6304   2.8136   2.9056

          k = 0.1250 0.3750-0.1250 (132608 PWs)   bands (ev):

   -18.4763 -18.4020 -18.3943 -18.3723 -18.3395 -18.3330 -18.3068 -18.3066
   -18.3027 -18.3014 -18.2979 -18.2913 -18.2832 -18.2813 -18.2792 -18.2790
   -18.2785 -18.2731 -18.2691 -18.2691 -18.2615 -18.2608 -18.2561 -18.2287
   -18.2153 -18.2089 -18.2025 -18.1961 -18.1526 -18.1447 -18.1352 -18.1349
   -18.1259 -18.1240 -18.1225 -18.1153 -18.1130 -18.1099 -18.1097 -18.0978
   -18.0940 -18.0923 -18.0902 -18.0386 -18.0322 -18.0157 -18.0083 -18.0027
    -9.5411  -9.4006  -9.3211  -9.2996  -9.2245  -9.1397  -9.1145  -9.0818
    -9.0544  -9.0112  -8.9871  -8.9491  -8.9111  -8.8843  -8.8495  -8.8198
    -8.7799  -8.7277  -8.6929  -8.6611  -8.6144  -8.5776  -8.5301  -8.4719
    -5.2411  -5.2326  -5.2245  -5.1935  -5.1799  -5.1753  -5.1642  -5.1627
    -5.1508  -5.1486  -5.1432  -5.1406  -5.1361  -5.1300  -5.1263  -5.1160
    -5.1075  -5.1016  -5.0951  -5.0894  -5.0871  -5.0718  -5.0577  -5.0458
    -4.3247  -4.0649  -3.8061  -3.7804  -3.5317  -3.5195  -3.2236  -2.9807
    -0.7773  -0.7513  -0.6799  -0.6320  -0.5177  -0.4236  -0.3483  -0.2434
    -0.1616  -0.0809  -0.0444   0.0495   0.3861   0.4370   0.4605   0.4899
     0.5240   0.5617   0.6026   0.6251   0.6547   0.7027   0.7425   0.7771
     0.8384   0.8569   0.9708   0.9900   1.0263   1.0854   1.1377   1.1487
     1.1729   1.2177   1.2320   1.2407   1.2613   1.2970   1.3252   1.3469
     1.3899   1.4179   1.4561   1.4699   1.4797   1.5057   1.5213   1.5647
     1.5921   1.6166   1.6573   1.7066   1.7242   1.7365   1.7548   1.8065
     1.8431   1.8542   1.8908   1.9244   1.9422   1.9670   2.0080   2.0529
     2.1065   2.1963   2.2581   2.3460   2.4127   2.6638   2.7990   2.9033

          k = 0.1250-0.3750 0.1250 (132608 PWs)   bands (ev):

   -18.4763 -18.4020 -18.3943 -18.3723 -18.3395 -18.3330 -18.3068 -18.3066
   -18.3027 -18.3014 -18.2979 -18.2913 -18.2832 -18.2813 -18.2791 -18.2790
   -18.2785 -18.2731 -18.2691 -18.2691 -18.2615 -18.2608 -18.2561 -18.2287
   -18.2153 -18.2089 -18.2025 -18.1961 -18.1526 -18.1447 -18.1352 -18.1349
   -18.1259 -18.1240 -18.1225 -18.1153 -18.1130 -18.1099 -18.1097 -18.0978
   -18.0940 -18.0923 -18.0902 -18.0386 -18.0322 -18.0157 -18.0083 -18.0027
    -9.5410  -9.4000  -9.3281  -9.2919  -9.2246  -9.1399  -9.1162  -9.0854
    -9.0496  -9.0100  -8.9859  -8.9531  -8.9077  -8.8864  -8.8500  -8.8211
    -8.7792  -8.7268  -8.6914  -8.6626  -8.6149  -8.5769  -8.5303  -8.4719
    -5.2411  -5.2325  -5.2245  -5.1934  -5.1799  -5.1756  -5.1641  -5.1629
    -5.1505  -5.1487  -5.1433  -5.1400  -5.1364  -5.1303  -5.1263  -5.1161
    -5.1075  -5.1016  -5.0949  -5.0895  -5.0871  -5.0716  -5.0578  -5.0458
    -4.3256  -4.0620  -3.8230  -3.7647  -3.5453  -3.5056  -3.2215  -2.9847
    -0.7960  -0.7129  -0.6832  -0.6279  -0.5188  -0.4273  -0.3539  -0.2537
    -0.1819  -0.0765  -0.0379   0.0473   0.3997   0.4261   0.4585   0.4939
     0.5217   0.5626   0.6070   0.6231   0.6652   0.6971   0.7486   0.7976
     0.8192   0.8822   0.9566   1.0049   1.0283   1.0571   1.1190   1.1450
     1.1746   1.2033   1.2177   1.2447   1.2739   1.2962   1.3309   1.3487
     1.4034   1.4222   1.4460   1.4619   1.4872   1.4994   1.5162   1.5575
     1.6112   1.6487   1.6637   1.6927   1.7278   1.7367   1.7527   1.8129
     1.8290   1.8673   1.8903   1.9230   1.9579   1.9699   2.0212   2.0597
     2.0806   2.1846   2.2367   2.3469   2.4223   2.6322   2.8068   2.9167

          k =-0.1250-0.3750 0.3750 (132616 PWs)   bands (ev):

   -18.4763 -18.4020 -18.3943 -18.3723 -18.3395 -18.3330 -18.3068 -18.3066
   -18.3027 -18.3014 -18.2979 -18.2913 -18.2832 -18.2813 -18.2792 -18.2790
   -18.2785 -18.2731 -18.2691 -18.2691 -18.2615 -18.2608 -18.2561 -18.2287
   -18.2153 -18.2089 -18.2025 -18.1961 -18.1526 -18.1447 -18.1352 -18.1349
   -18.1259 -18.1240 -18.1225 -18.1153 -18.1129 -18.1099 -18.1097 -18.0978
   -18.0940 -18.0923 -18.0902 -18.0386 -18.0322 -18.0157 -18.0083 -18.0027
    -9.5303  -9.4085  -9.3297  -9.2878  -9.2352  -9.1521  -9.1119  -9.0855
    -9.0546  -9.0013  -8.9885  -8.9475  -8.9002  -8.8849  -8.8537  -8.8240
    -8.7717  -8.7270  -8.6957  -8.6584  -8.6046  -8.5766  -8.5428  -8.4724
    -5.2411  -5.2324  -5.2244  -5.1930  -5.1799  -5.1755  -5.1643  -5.1623
    -5.1510  -5.1484  -5.1437  -5.1401  -5.1366  -5.1300  -5.1265  -5.1160
    -5.1065  -5.1010  -5.0955  -5.0902  -5.0873  -5.0719  -5.0577  -5.0456
    -4.2054  -3.9739  -3.9485  -3.7221  -3.6236  -3.4192  -3.3931  -3.1628
    -0.7182  -0.6793  -0.5225  -0.4685  -0.4203  -0.2571  -0.2161  -0.1469
    -0.0854  -0.0146   0.0928   0.1519   0.3135   0.3958   0.4351   0.4649
     0.4925   0.5079   0.5314   0.5846   0.5925   0.6253   0.6799   0.7051
     0.8030   0.8496   0.9119   0.9535   0.9659   1.0022   1.0707   1.1070
     1.1374   1.1691   1.1949   1.2121   1.2552   1.2899   1.3018   1.3311
     1.3531   1.4048   1.4538   1.4797   1.5078   1.5239   1.5476   1.5822
     1.6018   1.6270   1.6484   1.6983   1.7306   1.7546   1.7618   1.8063
     1.8415   1.8522   1.8783   1.9394   1.9526   1.9806   1.9941   2.0287
     2.0538   2.1104   2.1665   2.2287   2.3443   2.5152   2.6006   2.6805

          k =-0.1250 0.3750-0.3750 (132616 PWs)   bands (ev):

   -18.4763 -18.4020 -18.3943 -18.3723 -18.3395 -18.3330 -18.3068 -18.3066
   -18.3027 -18.3014 -18.2979 -18.2913 -18.2832 -18.2813 -18.2792 -18.2790
   -18.2785 -18.2731 -18.2691 -18.2691 -18.2615 -18.2608 -18.2561 -18.2287
   -18.2153 -18.2089 -18.2025 -18.1961 -18.1526 -18.1447 -18.1352 -18.1349
   -18.1259 -18.1240 -18.1225 -18.1153 -18.1129 -18.1099 -18.1097 -18.0978
   -18.0940 -18.0923 -18.0902 -18.0386 -18.0322 -18.0157 -18.0083 -18.0027
    -9.5302  -9.4089  -9.3315  -9.2848  -9.2344  -9.1575  -9.1081  -9.0843
    -9.0568  -8.9995  -8.9865  -8.9506  -8.8981  -8.8862  -8.8550  -8.8247
    -8.7707  -8.7261  -8.6962  -8.6584  -8.6048  -8.5758  -8.5434  -8.4725
    -5.2411  -5.2324  -5.2244  -5.1929  -5.1799  -5.1758  -5.1642  -5.1625
    -5.1505  -5.1486  -5.1437  -5.1398  -5.1368  -5.1301  -5.1266  -5.1161
    -5.1066  -5.1009  -5.0953  -5.0904  -5.0872  -5.0717  -5.0578  -5.0456
    -4.2054  -3.9775  -3.9445  -3.7280  -3.6169  -3.4216  -3.3872  -3.1681
    -0.7122  -0.6695  -0.5258  -0.4803  -0.4064  -0.2652  -0.2244  -0.1467
    -0.0910  -0.0245   0.1068   0.1514   0.3152   0.3737   0.4248   0.4756
     0.4973   0.5101   0.5465   0.5796   0.5892   0.6365   0.6670   0.7296
     0.8008   0.8474   0.9032   0.9621   0.9796   1.0207   1.0648   1.0901
     1.1222   1.1527   1.1903   1.2140   1.2416   1.2717   1.3004   1.3415
     1.3886   1.4273   1.4314   1.4716   1.4992   1.5190   1.5462   1.5892
     1.6236   1.6426   1.6625   1.7010   1.7230   1.7458   1.7637   1.7938
     1.8507   1.8587   1.8770   1.9409   1.9571   1.9804   2.0079   2.0276
     2.0491   2.1005   2.1463   2.2266   2.3465   2.4912   2.5801   2.7168

          k = 0.1250-0.3750-0.3750 (132616 PWs)   bands (ev):

   -18.4763 -18.4020 -18.3943 -18.3723 -18.3395 -18.3330 -18.3068 -18.3066
   -18.3027 -18.3014 -18.2979 -18.2913 -18.2832 -18.2813 -18.2792 -18.2790
   -18.2785 -18.2731 -18.2691 -18.2691 -18.2615 -18.2608 -18.2561 -18.2287
   -18.2153 -18.2089 -18.2025 -18.1961 -18.1526 -18.1447 -18.1352 -18.1349
   -18.1259 -18.1240 -18.1225 -18.1153 -18.1129 -18.1099 -18.1097 -18.0978
   -18.0940 -18.0923 -18.0902 -18.0386 -18.0322 -18.0157 -18.0083 -18.0027
    -9.5303  -9.4084  -9.3263  -9.2953  -9.2306  -9.1536  -9.1116  -9.0791
    -9.0615  -9.0004  -8.9861  -8.9482  -8.9007  -8.8886  -8.8520  -8.8234
    -8.7707  -8.7269  -8.6975  -8.6570  -8.6040  -8.5772  -8.5430  -8.4724
    -5.2411  -5.2324  -5.2244  -5.1926  -5.1801  -5.1757  -5.1642  -5.1626
    -5.1508  -5.1481  -5.1435  -5.1406  -5.1366  -5.1303  -5.1266  -5.1157
    -5.1061  -5.1011  -5.0955  -5.0902  -5.0875  -5.0717  -5.0578  -5.0456
    -4.2043  -4.0061  -3.9074  -3.7397  -3.6086  -3.4598  -3.3507  -3.1728
    -0.7154  -0.6605  -0.5281  -0.4852  -0.4341  -0.2586  -0.2088  -0.1387
    -0.0711   0.0115   0.0657   0.1417   0.2964   0.3622   0.4134   0.4580
     0.4959   0.5370   0.5501   0.5951   0.6097   0.6539   0.6678   0.7112
     0.7799   0.8938   0.8981   0.9443   0.9920   1.0090   1.0565   1.0771
     1.1373   1.1449   1.1783   1.2165   1.2462   1.2894   1.3005   1.3434
     1.3633   1.3989   1.4462   1.4984   1.5125   1.5237   1.5561   1.5641
     1.5908   1.6417   1.6724   1.6947   1.7216   1.7526   1.7798   1.8041
     1.8348   1.8542   1.8869   1.9255   1.9424   1.9726   2.0036   2.0298
     2.0683   2.1185   2.1707   2.2270   2.3247   2.5195   2.5982   2.6697

          k = 0.3750 0.1250-0.3750 (132616 PWs)   bands (ev):

   -18.4763 -18.4020 -18.3943 -18.3723 -18.3395 -18.3330 -18.3068 -18.3066
   -18.3027 -18.3014 -18.2979 -18.2913 -18.2832 -18.2813 -18.2792 -18.2790
   -18.2785 -18.2731 -18.2691 -18.2691 -18.2615 -18.2608 -18.2561 -18.2287
   -18.2153 -18.2089 -18.2025 -18.1961 -18.1526 -18.1447 -18.1352 -18.1349
   -18.1259 -18.1240 -18.1225 -18.1153 -18.1129 -18.1099 -18.1097 -18.0978
   -18.0940 -18.0923 -18.0902 -18.0386 -18.0322 -18.0157 -18.0083 -18.0027
    -9.5318  -9.3948  -9.3404  -9.3005  -9.2191  -9.1874  -9.0925  -9.0721
    -9.0372  -8.9968  -8.9804  -8.9522  -8.9109  -8.8899  -8.8683  -8.8392
    -8.7745  -8.7308  -8.6779  -8.6455  -8.5976  -8.5771  -8.5564  -8.4718
    -5.2411  -5.2325  -5.2246  -5.1929  -5.1794  -5.1760  -5.1643  -5.1627
    -5.1503  -5.1480  -5.1430  -5.1410  -5.1354  -5.1310  -5.1256  -5.1170
    -5.1068  -5.1004  -5.0955  -5.0901  -5.0871  -5.0721  -5.0581  -5.0458
    -4.1969  -3.9638  -3.9284  -3.7159  -3.6570  -3.4314  -3.4029  -3.1794
    -0.6520  -0.6056  -0.5386  -0.5036  -0.3900  -0.3071  -0.2499  -0.1617
    -0.0892   0.0643   0.1087   0.1535   0.2905   0.3676   0.4186   0.4649
     0.5129   0.5286   0.5657   0.5758   0.5837   0.6419   0.6906   0.7240
     0.7558   0.8525   0.8876   0.9248   0.9525   0.9886   1.0647   1.0754
     1.1233   1.1593   1.1947   1.2489   1.2732   1.3253   1.3556   1.3858
     1.4044   1.4380   1.4569   1.4844   1.5119   1.5397   1.5568   1.5633
     1.5815   1.6233   1.6543   1.6710   1.6877   1.7060   1.7354   1.7620
     1.8288   1.8459   1.8942   1.8987   1.9402   1.9606   1.9913   2.0488
     2.0968   2.1123   2.1592   2.2837   2.3201   2.4246   2.5535   2.5985

          k =-0.3750-0.1250-0.3750 (132616 PWs)   bands (ev):

   -18.4763 -18.4020 -18.3943 -18.3723 -18.3395 -18.3330 -18.3068 -18.3066
   -18.3027 -18.3014 -18.2979 -18.2913 -18.2832 -18.2813 -18.2792 -18.2790
   -18.2785 -18.2731 -18.2691 -18.2691 -18.2615 -18.2608 -18.2561 -18.2287
   -18.2153 -18.2089 -18.2025 -18.1961 -18.1526 -18.1447 -18.1352 -18.1349
   -18.1259 -18.1240 -18.1225 -18.1153 -18.1129 -18.1099 -18.1097 -18.0978
   -18.0940 -18.0923 -18.0902 -18.0386 -18.0322 -18.0157 -18.0083 -18.0027
    -9.5315  -9.3970  -9.3371  -9.3021  -9.2220  -9.1825  -9.0888  -9.0748
    -9.0409  -9.0035  -8.9717  -8.9512  -8.9161  -8.8888  -8.8655  -8.8392
    -8.7738  -8.7321  -8.6785  -8.6448  -8.5981  -8.5761  -8.5570  -8.4717
    -5.2411  -5.2324  -5.2247  -5.1931  -5.1796  -5.1760  -5.1642  -5.1625
    -5.1493  -5.1486  -5.1432  -5.1405  -5.1358  -5.1314  -5.1257  -5.1167
    -5.1066  -5.1006  -5.0956  -5.0902  -5.0870  -5.0722  -5.0580  -5.0458
    -4.1906  -4.0080  -3.8800  -3.7314  -3.6461  -3.4713  -3.3593  -3.1892
    -0.6640  -0.5877  -0.5230  -0.5103  -0.4038  -0.3282  -0.2357  -0.1378
    -0.0708   0.0085   0.1173   0.1726   0.2627   0.3900   0.4271   0.4648
     0.4997   0.5224   0.5469   0.5650   0.5904   0.6602   0.6762   0.7325
     0.7629   0.8453   0.8888   0.9399   0.9669   0.9907   1.0460   1.0890
     1.1233   1.1697   1.1909   1.2582   1.2620   1.2971   1.3542   1.3847
     1.4160   1.4266   1.4630   1.4867   1.5137   1.5395   1.5592   1.5752
     1.5986   1.6101   1.6471   1.6636   1.6973   1.7131   1.7549   1.7790
     1.8048   1.8397   1.8652   1.9063   1.9326   1.9571   2.0172   2.0585
     2.0910   2.0981   2.1563   2.2816   2.3474   2.4335   2.4858   2.6273

          k = 0.3750-0.1250 0.3750 (132616 PWs)   bands (ev):

   -18.4763 -18.4020 -18.3943 -18.3723 -18.3395 -18.3330 -18.3068 -18.3066
   -18.3027 -18.3014 -18.2979 -18.2913 -18.2832 -18.2813 -18.2792 -18.2790
   -18.2785 -18.2731 -18.2691 -18.2691 -18.2615 -18.2608 -18.2561 -18.2287
   -18.2153 -18.2089 -18.2025 -18.1961 -18.1526 -18.1447 -18.1352 -18.1349
   -18.1259 -18.1240 -18.1225 -18.1153 -18.1129 -18.1099 -18.1097 -18.0978
   -18.0940 -18.0923 -18.0902 -18.0386 -18.0322 -18.0157 -18.0083 -18.0027
    -9.5316  -9.3961  -9.3412  -9.2961  -9.2197  -9.1919  -9.0870  -9.0711
    -9.0410  -9.0002  -8.9770  -8.9502  -8.9107  -8.8925  -8.8687  -8.8395
    -8.7732  -8.7309  -8.6784  -8.6452  -8.5977  -8.5753  -8.5579  -8.4718
    -5.2411  -5.2324  -5.2247  -5.1929  -5.1793  -5.1763  -5.1640  -5.1631
    -5.1494  -5.1485  -5.1432  -5.1406  -5.1355  -5.1312  -5.1257  -5.1172
    -5.1069  -5.1004  -5.0952  -5.0903  -5.0870  -5.0719  -5.0582  -5.0458
    -4.1938  -4.0027  -3.8782  -3.7367  -3.6478  -3.4634  -3.3635  -3.1902
    -0.6449  -0.5871  -0.5306  -0.5148  -0.4087  -0.3339  -0.2250  -0.1492
    -0.0839   0.0137   0.1103   0.1768   0.2623   0.3953   0.4482   0.4614
     0.4917   0.5222   0.5445   0.5703   0.6030   0.6485   0.6949   0.7284
     0.7608   0.8506   0.9005   0.9429   0.9567   0.9717   1.0311   1.0923
     1.1154   1.1667   1.1933   1.2393   1.2900   1.3118   1.3409   1.3876
     1.4115   1.4443   1.4573   1.4847   1.5060   1.5399   1.5514   1.5638
     1.5916   1.6300   1.6507   1.6670   1.6861   1.7240   1.7354   1.7885
     1.8189   1.8468   1.8553   1.8990   1.9420   1.9609   2.0274   2.0474
     2.0975   2.1015   2.1689   2.2507   2.3322   2.4362   2.4881   2.6429

          k =-0.3750 0.1250 0.3750 (132616 PWs)   bands (ev):

   -18.4763 -18.4020 -18.3943 -18.3723 -18.3395 -18.3330 -18.3068 -18.3066
   -18.3027 -18.3014 -18.2979 -18.2913 -18.2832 -18.2813 -18.2792 -18.2790
   -18.2785 -18.2731 -18.2691 -18.2691 -18.2615 -18.2608 -18.2561 -18.2287
   -18.2153 -18.2089 -18.2025 -18.1961 -18.1526 -18.1447 -18.1352 -18.1349
   -18.1259 -18.1240 -18.1225 -18.1153 -18.1129 -18.1099 -18.1097 -18.0978
   -18.0940 -18.0923 -18.0902 -18.0386 -18.0322 -18.0157 -18.0083 -18.0027
    -9.5318  -9.3943  -9.3387  -9.3044  -9.2194  -9.1848  -9.0896  -9.0740
    -9.0384  -8.9976  -8.9769  -8.9549  -8.9115  -8.8921  -8.8670  -8.8379
    -8.7738  -8.7314  -8.6787  -8.6445  -8.5963  -8.5779  -8.5570  -8.4717
    -5.2411  -5.2325  -5.2246  -5.1926  -5.1794  -5.1763  -5.1642  -5.1629
    -5.1499  -5.1481  -5.1429  -5.1412  -5.1354  -5.1315  -5.1257  -5.1167
    -5.1066  -5.1006  -5.0954  -5.0900  -5.0872  -5.0719  -5.0581  -5.0458
    -4.1975  -3.9674  -3.9245  -3.7190  -3.6529  -3.4297  -3.4013  -3.1837
    -0.6613  -0.5856  -0.5335  -0.5004  -0.4023  -0.3004  -0.2503  -0.1733
    -0.0969   0.0628   0.1036   0.1520   0.2878   0.3704   0.4070   0.4755
     0.5179   0.5277   0.5554   0.5886   0.6008   0.6508   0.6804   0.7120
     0.7699   0.8483   0.8916   0.9302   0.9546   1.0054   1.0497   1.0963
     1.1244   1.1434   1.1885   1.2336   1.2622   1.2998   1.3478   1.3712
     1.4131   1.4306   1.4655   1.4838   1.5244   1.5359   1.5616   1.5882
     1.6061   1.6232   1.6599   1.6757   1.6869   1.7111   1.7330   1.7785
     1.8010   1.8359   1.8886   1.9067   1.9332   1.9492   2.0140   2.0357
     2.0856   2.1375   2.1677   2.2644   2.3229   2.4335   2.5443   2.5861

          k = 0.3750-0.3750 0.1250 (132616 PWs)   bands (ev):

   -18.4763 -18.4020 -18.3943 -18.3723 -18.3395 -18.3330 -18.3068 -18.3066
   -18.3027 -18.3014 -18.2979 -18.2913 -18.2832 -18.2813 -18.2792 -18.2790
   -18.2785 -18.2731 -18.2691 -18.2691 -18.2615 -18.2608 -18.2561 -18.2287
   -18.2153 -18.2089 -18.2025 -18.1961 -18.1526 -18.1447 -18.1352 -18.1349
   -18.1259 -18.1240 -18.1225 -18.1153 -18.1130 -18.1099 -18.1097 -18.0978
   -18.0940 -18.0923 -18.0902 -18.0386 -18.0322 -18.0157 -18.0083 -18.0027
    -9.5344  -9.3873  -9.3458  -9.2948  -9.2209  -9.1607  -9.1278  -9.0773
    -9.0340  -9.0089  -8.9991  -8.9544  -8.8922  -8.8712  -8.8540  -8.8292
    -8.7797  -8.7272  -8.6925  -8.6560  -8.6000  -8.5758  -8.5491  -8.4726
    -5.2411  -5.2324  -5.2247  -5.1932  -5.1788  -5.1773  -5.1638  -5.1624
    -5.1500  -5.1479  -5.1430  -5.1409  -5.1361  -5.1315  -5.1257  -5.1161
    -5.1086  -5.1009  -5.0948  -5.0897  -5.0870  -5.0715  -5.0577  -5.0461
    -4.2146  -3.9665  -3.9220  -3.7364  -3.6370  -3.4383  -3.3628  -3.1779
    -0.7615  -0.6437  -0.5589  -0.3938  -0.3254  -0.2469  -0.2128  -0.1649
    -0.0957  -0.0422   0.0395   0.1436   0.3489   0.3895   0.4408   0.4470
     0.4905   0.5174   0.5299   0.5778   0.5960   0.6237   0.6594   0.6930
     0.7832   0.8410   0.8999   0.9360   0.9736   1.0251   1.0480   1.0654
     1.1277   1.1429   1.1879   1.2188   1.2427   1.3034   1.3261   1.3465
     1.3772   1.4079   1.4732   1.4915   1.5117   1.5231   1.5565   1.5779
     1.6236   1.6677   1.6899   1.7035   1.7346   1.7606   1.7662   1.8048
     1.8252   1.8467   1.8748   1.8942   1.9452   1.9614   1.9850   2.0031
     2.0702   2.1287   2.1689   2.2484   2.3036   2.4742   2.5798   2.7025

          k =-0.3750-0.3750-0.1250 (132616 PWs)   bands (ev):

   -18.4763 -18.4020 -18.3943 -18.3723 -18.3395 -18.3330 -18.3068 -18.3066
   -18.3027 -18.3014 -18.2979 -18.2913 -18.2832 -18.2813 -18.2792 -18.2790
   -18.2785 -18.2731 -18.2691 -18.2691 -18.2615 -18.2608 -18.2561 -18.2287
   -18.2153 -18.2089 -18.2025 -18.1961 -18.1526 -18.1447 -18.1352 -18.1349
   -18.1259 -18.1240 -18.1225 -18.1153 -18.1130 -18.1099 -18.1097 -18.0978
   -18.0940 -18.0923 -18.0902 -18.0386 -18.0322 -18.0157 -18.0083 -18.0027
    -9.5342  -9.3899  -9.3384  -9.3026  -9.2196  -9.1550  -9.1277  -9.0789
    -9.0401  -9.0133  -8.9921  -8.9530  -8.8965  -8.8701  -8.8512  -8.8266
    -8.7806  -8.7288  -8.6941  -8.6542  -8.6001  -8.5765  -8.5487  -8.4724
    -5.2411  -5.2325  -5.2247  -5.1935  -5.1793  -5.1769  -5.1638  -5.1620
    -5.1497  -5.1482  -5.1430  -5.1407  -5.1364  -5.1316  -5.1257  -5.1156
    -5.1084  -5.1010  -5.0951  -5.0896  -5.0869  -5.0718  -5.0576  -5.0461
    -4.2104  -3.9875  -3.9061  -3.7371  -3.6323  -3.4377  -3.3706  -3.1734
    -0.7697  -0.6440  -0.5499  -0.3824  -0.3533  -0.2598  -0.2356  -0.1396
    -0.0781   0.0016   0.0715   0.1276   0.3138   0.3756   0.4191   0.4332
     0.4812   0.5069   0.5328   0.5624   0.6173   0.6305   0.6747   0.7031
     0.7888   0.8394   0.8854   0.9503   0.9985   1.0018   1.0517   1.0707
     1.1125   1.1558   1.1990   1.2040   1.2756   1.2946   1.3194   1.3466
     1.3868   1.4031   1.4600   1.4917   1.5075   1.5351   1.5514   1.5745
     1.6251   1.6619   1.6889   1.7092   1.7311   1.7595   1.7830   1.7962
     1.8123   1.8513   1.8772   1.8832   1.9273   1.9538   1.9805   2.0094
     2.1001   2.1255   2.2019   2.2142   2.3116   2.4885   2.5736   2.6898

          k = 0.3750 0.3750-0.1250 (132616 PWs)   bands (ev):

   -18.4763 -18.4020 -18.3943 -18.3723 -18.3395 -18.3330 -18.3068 -18.3066
   -18.3027 -18.3014 -18.2979 -18.2913 -18.2832 -18.2813 -18.2792 -18.2790
   -18.2785 -18.2731 -18.2691 -18.2691 -18.2615 -18.2608 -18.2561 -18.2287
   -18.2153 -18.2089 -18.2025 -18.1961 -18.1526 -18.1447 -18.1352 -18.1349
   -18.1259 -18.1240 -18.1225 -18.1153 -18.1130 -18.1099 -18.1097 -18.0978
   -18.0940 -18.0923 -18.0902 -18.0386 -18.0322 -18.0157 -18.0083 -18.0027
    -9.5344  -9.3888  -9.3396  -9.3009  -9.2209  -9.1572  -9.1316  -9.0705
    -9.0401  -9.0092  -9.0003  -8.9511  -8.8954  -8.8696  -8.8529  -8.8277
    -8.7805  -8.7282  -8.6934  -8.6550  -8.5994  -8.5770  -8.5486  -8.4725
    -5.2411  -5.2325  -5.2247  -5.1933  -5.1790  -5.1768  -5.1639  -5.1621
    -5.1503  -5.1478  -5.1428  -5.1414  -5.1360  -5.1312  -5.1257  -5.1159
    -5.1085  -5.1009  -5.0949  -5.0896  -5.0870  -5.0718  -5.0576  -5.0462
    -4.2127  -3.9834  -3.9020  -3.7458  -3.6291  -3.4386  -3.3736  -3.1698
    -0.7542  -0.6603  -0.5611  -0.3867  -0.3587  -0.2497  -0.2307  -0.1337
    -0.0709   0.0093   0.0644   0.1202   0.3250   0.3687   0.4218   0.4483
     0.4702   0.4971   0.5407   0.5769   0.5986   0.6337   0.6708   0.7023
     0.7810   0.8473   0.8893   0.9475   0.9823   1.0275   1.0382   1.0695
     1.1253   1.1661   1.1792   1.2192   1.2656   1.2932   1.3171   1.3433
     1.3821   1.4133   1.4471   1.4893   1.5062   1.5351   1.5462   1.5983
     1.6255   1.6461   1.6713   1.7136   1.7351   1.7478   1.7854   1.8043
     1.8220   1.8403   1.8757   1.8989   1.9296   1.9420   1.9812   2.0048
     2.1004   2.1205   2.1849   2.2526   2.3171   2.4849   2.5987   2.6690

          k =-0.3750 0.3750 0.1250 (132616 PWs)   bands (ev):

   -18.4763 -18.4020 -18.3943 -18.3723 -18.3395 -18.3330 -18.3068 -18.3066
   -18.3027 -18.3014 -18.2979 -18.2913 -18.2832 -18.2813 -18.2792 -18.2790
   -18.2785 -18.2731 -18.2691 -18.2691 -18.2615 -18.2608 -18.2561 -18.2287
   -18.2153 -18.2089 -18.2025 -18.1961 -18.1526 -18.1447 -18.1352 -18.1349
   -18.1259 -18.1240 -18.1225 -18.1153 -18.1130 -18.1099 -18.1097 -18.0978
   -18.0940 -18.0923 -18.0902 -18.0386 -18.0322 -18.0157 -18.0083 -18.0027
    -9.5345  -9.3868  -9.3409  -9.3040  -9.2186  -9.1553  -9.1297  -9.0783
    -9.0333  -9.0102  -9.0005  -8.9534  -8.8930  -8.8726  -8.8524  -8.8275
    -8.7800  -8.7275  -8.6938  -8.6550  -8.5986  -8.5773  -8.5490  -8.4724
    -5.2411  -5.2325  -5.2246  -5.1930  -5.1789  -5.1773  -5.1640  -5.1623
    -5.1503  -5.1475  -5.1428  -5.1415  -5.1360  -5.1317  -5.1257  -5.1157
    -5.1082  -5.1011  -5.0949  -5.0895  -5.0871  -5.0715  -5.0577  -5.0462
    -4.2150  -3.9673  -3.9230  -3.7253  -3.6476  -3.4367  -3.3635  -3.1771
    -0.7662  -0.6513  -0.5498  -0.3768  -0.3316  -0.2547  -0.2079  -0.1627
    -0.1077  -0.0358   0.0447   0.1330   0.3371   0.4040   0.4454   0.4593
     0.4829   0.5049   0.5375   0.5700   0.5870   0.6306   0.6702   0.6871
     0.7881   0.8390   0.8988   0.9432   0.9780   1.0231   1.0541   1.0704
     1.1382   1.1465   1.1809   1.2026   1.2561   1.2777   1.3153   1.3433
     1.3764   1.4133   1.4622   1.4792   1.5140   1.5389   1.5647   1.5866
     1.6238   1.6491   1.6978   1.7166   1.7412   1.7563   1.7705   1.7916
     1.8241   1.8411   1.8701   1.9093   1.9405   1.9548   1.9700   1.9964
     2.0705   2.1230   2.1779   2.2831   2.3227   2.4838   2.5823   2.6602

          k =-0.3750-0.3750 0.3750 (132612 PWs)   bands (ev):

   -18.4763 -18.4020 -18.3943 -18.3723 -18.3395 -18.3330 -18.3068 -18.3066
   -18.3027 -18.3014 -18.2979 -18.2913 -18.2832 -18.2813 -18.2792 -18.2790
   -18.2785 -18.2731 -18.2691 -18.2691 -18.2615 -18.2608 -18.2561 -18.2287
   -18.2153 -18.2089 -18.2025 -18.1961 -18.1526 -18.1447 -18.1352 -18.1349
   -18.1259 -18.1240 -18.1225 -18.1153 -18.1129 -18.1099 -18.1097 -18.0978
   -18.0940 -18.0923 -18.0902 -18.0386 -18.0322 -18.0157 -18.0083 -18.0027
    -9.5258  -9.3913  -9.3381  -9.3034  -9.2293  -9.1812  -9.1191  -9.0650
    -9.0413  -9.0166  -8.9928  -8.9472  -8.8902  -8.8683  -8.8567  -8.8309
    -8.7712  -8.7276  -8.6966  -8.6447  -8.5993  -8.5780  -8.5568  -8.4735
    -5.2411  -5.2324  -5.2247  -5.1932  -5.1791  -5.1770  -5.1641  -5.1622
    -5.1504  -5.1480  -5.1432  -5.1410  -5.1362  -5.1309  -5.1257  -5.1157
    -5.1077  -5.1004  -5.0949  -5.0901  -5.0870  -5.0717  -5.0577  -5.0458
    -4.0997  -3.8749  -3.8621  -3.7745  -3.6079  -3.5612  -3.5426  -3.3390
    -0.4873  -0.4442  -0.3922  -0.2998  -0.2446  -0.2002  -0.1269  -0.0737
    -0.0479   0.0488   0.0888   0.1835   0.2927   0.3238   0.3757   0.3929
     0.4328   0.4606   0.4940   0.5270   0.5389   0.5643   0.6252   0.6703
     0.8005   0.8521   0.8898   0.9238   0.9443   0.9803   1.0116   1.0483
     1.0605   1.1116   1.1505   1.1616   1.1993   1.2443   1.2640   1.3144
     1.3630   1.4331   1.4596   1.5065   1.5284   1.5469   1.5713   1.5867
     1.6330   1.6505   1.6579   1.7217   1.7345   1.7642   1.7806   1.8112
     1.8301   1.8592   1.8975   1.9083   1.9200   1.9620   1.9759   1.9955
     2.0519   2.0868   2.0943   2.1617   2.1831   2.2793   2.3477   2.4588

          k =-0.3750 0.3750-0.3750 (132612 PWs)   bands (ev):

   -18.4763 -18.4020 -18.3943 -18.3723 -18.3395 -18.3330 -18.3068 -18.3066
   -18.3027 -18.3014 -18.2979 -18.2913 -18.2832 -18.2813 -18.2792 -18.2790
   -18.2785 -18.2731 -18.2691 -18.2691 -18.2615 -18.2608 -18.2561 -18.2287
   -18.2153 -18.2089 -18.2025 -18.1961 -18.1526 -18.1447 -18.1352 -18.1349
   -18.1259 -18.1240 -18.1225 -18.1153 -18.1129 -18.1099 -18.1097 -18.0978
   -18.0940 -18.0923 -18.0902 -18.0386 -18.0322 -18.0157 -18.0083 -18.0027
    -9.5256  -9.3916  -9.3411  -9.2987  -9.2286  -9.1858  -9.1155  -9.0666
    -9.0428  -9.0146  -8.9905  -8.9500  -8.8874  -8.8691  -8.8593  -8.8313
    -8.7702  -8.7268  -8.6971  -8.6446  -8.5998  -8.5763  -8.5579  -8.4735
    -5.2411  -5.2324  -5.2247  -5.1932  -5.1789  -5.1775  -5.1640  -5.1625
    -5.1497  -5.1484  -5.1433  -5.1407  -5.1363  -5.1311  -5.1257  -5.1158
    -5.1079  -5.1003  -5.0947  -5.0903  -5.0870  -5.0715  -5.0578  -5.0458
    -4.0991  -3.8945  -3.8440  -3.7677  -3.6312  -3.5713  -3.5015  -3.3531
    -0.4856  -0.4165  -0.3850  -0.3083  -0.2471  -0.1894  -0.1359  -0.1209
    -0.0428   0.0092   0.1132   0.1922   0.2704   0.3417   0.3804   0.4074
     0.4458   0.4624   0.4814   0.5185   0.5640   0.5793   0.6087   0.6685
     0.8149   0.8416   0.8864   0.9113   0.9502   0.9944   1.0129   1.0302
     1.0631   1.1061   1.1254   1.1805   1.1993   1.2306   1.2826   1.2943
     1.3731   1.4238   1.4551   1.5169   1.5372   1.5496   1.5747   1.5969
     1.6254   1.6671   1.6900   1.7087   1.7368   1.7517   1.7758   1.8116
     1.8246   1.8662   1.8905   1.9062   1.9504   1.9664   1.9813   2.0111
     2.0254   2.0628   2.1049   2.1303   2.1932   2.2446   2.3287   2.5023

          k = 0.3750-0.3750-0.3750 (132612 PWs)   bands (ev):

   -18.4763 -18.4020 -18.3943 -18.3723 -18.3395 -18.3330 -18.3068 -18.3066
   -18.3027 -18.3014 -18.2979 -18.2913 -18.2832 -18.2813 -18.2792 -18.2790
   -18.2785 -18.2731 -18.2691 -18.2691 -18.2615 -18.2608 -18.2561 -18.2287
   -18.2153 -18.2089 -18.2025 -18.1961 -18.1526 -18.1447 -18.1352 -18.1349
   -18.1259 -18.1240 -18.1225 -18.1153 -18.1129 -18.1099 -18.1097 -18.0978
   -18.0940 -18.0923 -18.0902 -18.0386 -18.0322 -18.0157 -18.0083 -18.0027
    -9.5258  -9.3907  -9.3350  -9.3097  -9.2269  -9.1809  -9.1166  -9.0675
    -9.0408  -9.0179  -8.9901  -8.9494  -8.8890  -8.8710  -8.8561  -8.8302
    -8.7704  -8.7270  -8.6981  -8.6438  -8.5980  -8.5788  -8.5574  -8.4734
    -5.2412  -5.2325  -5.2246  -5.1929  -5.1790  -5.1775  -5.1641  -5.1624
    -5.1500  -5.1480  -5.1433  -5.1412  -5.1362  -5.1314  -5.1257  -5.1154
    -5.1075  -5.1006  -5.0949  -5.0900  -5.0871  -5.0715  -5.0577  -5.0459
    -4.1002  -3.9000  -3.8308  -3.7736  -3.6357  -3.5560  -3.5162  -3.3498
    -0.4954  -0.4288  -0.3622  -0.3187  -0.2294  -0.1921  -0.1631  -0.0880
    -0.0537   0.0298   0.1116   0.1772   0.2760   0.3091   0.3551   0.4203
     0.4454   0.4796   0.5116   0.5331   0.5634   0.5737   0.6046   0.6487
     0.8168   0.8506   0.8894   0.9143   0.9478   1.0039   1.0144   1.0468
     1.0677   1.0994   1.1123   1.1548   1.1935   1.2214   1.2688   1.3223
     1.3729   1.4141   1.4684   1.5138   1.5351   1.5503   1.5755   1.5914
     1.6246   1.6439   1.7025   1.7153   1.7347   1.7602   1.7902   1.8073
     1.8344   1.8571   1.8861   1.9019   1.9355   1.9504   1.9729   2.0032
     2.0444   2.0751   2.1144   2.1496   2.1869   2.2820   2.3375   2.4531

     highest occupied level (ev):     3.1249

!    total energy              =   -2256.27990956 Ry
     estimated scf accuracy    <          2.2E-11 Ry

     The total energy is the sum of the following terms:
     one-electron contribution =    -994.71030743 Ry
     hartree contribution      =     625.55018358 Ry
     xc contribution           =    -647.61569561 Ry
     ewald contribution        =   -1239.50409009 Ry

     convergence has been achieved in  15 iterations

     Forces acting on atoms (cartesian axes, Ry/au):

     atom    1 type  1   force =     0.00137770    0.00102517   -0.00105242
     atom    2 type  2   force =    -0.00024554    0.01430728    0.00177667
     atom    3 type  3   force =     0.01973470    0.00110687    0.01995220
     atom    4 type  3   force =     0.00639380   -0.00012346   -0.02261480
     atom    5 type  3   force =    -0.00527402    0.00228247   -0.00285728
     atom    6 type  1   force =     0.00539227   -0.00410018    0.00931021
     atom    7 type  2   force =    -0.01199709   -0.02020201    0.01939786
     atom    8 type  3   force =     0.02271963    0.00123702    0.00307142
     atom    9 type  3   force =    -0.01921059    0.00279169   -0.02644626
     atom   10 type  3   force =    -0.00812671    0.01478121   -0.00262575
     atom   11 type  1   force =     0.00005467    0.00323016    0.00379685
     atom   12 type  2   force =     0.00060128   -0.01306148   -0.01482565
     atom   13 type  3   force =    -0.00723626   -0.00280878   -0.00497004
     atom   14 type  3   force =    -0.00335332    0.00549086    0.00846035
     atom   15 type  3   force =     0.00055310   -0.00445248    0.00437304
     atom   16 type  1   force =    -0.00688459    0.00077559   -0.00659179
     atom   17 type  2   force =    -0.01476530    0.01458698   -0.01398059
     atom   18 type  3   force =     0.00834908    0.00587283   -0.00088405
     atom   19 type  3   force =    -0.00121191   -0.00261974    0.01577722
     atom   20 type  3   force =    -0.00107665   -0.01306617    0.00622034
     atom   21 type  1   force =    -0.00184526   -0.00666469   -0.00145703
     atom   22 type  2   force =     0.00177832   -0.01592901   -0.00523172
     atom   23 type  3   force =     0.00735518   -0.00806011   -0.00298836
     atom   24 type  3   force =    -0.00273647    0.00341744   -0.00595954
     atom   25 type  3   force =    -0.00896674    0.00917943    0.00688252
     atom   26 type  1   force =    -0.00194365   -0.00586006    0.00442392
     atom   27 type  2   force =     0.00776950    0.00139821   -0.00051084
     atom   28 type  3   force =    -0.01795110    0.00212690    0.00621731
     atom   29 type  3   force =    -0.00431435   -0.00011028    0.00403832
     atom   30 type  3   force =    -0.00396733   -0.01073119    0.00019770
     atom   31 type  1   force =    -0.00025510    0.00434148    0.00364488
     atom   32 type  2   force =     0.01017598   -0.00533622    0.02499299
     atom   33 type  3   force =     0.00497997    0.00533102    0.00061936
     atom   34 type  3   force =     0.00485779   -0.00263232    0.00994612
     atom   35 type  3   force =     0.00893084    0.01062825    0.00629447
     atom   36 type  1   force =    -0.00222790    0.00218147   -0.00293698
     atom   37 type  2   force =     0.00660506    0.00119646   -0.00785031
     atom   38 type  3   force =     0.00845062    0.00446899   -0.00513740
     atom   39 type  3   force =    -0.00270417   -0.00549847   -0.03474397
     atom   40 type  3   force =     0.00021456    0.00949888    0.00427103

     Total force =     0.103315     Total SCF correction =     0.000021


     Computing stress (Cartesian axis) and pressure

          total   stress  (Ry/bohr**3)                   (kbar)     P=       -5.08
  -0.00003861   0.00000066   0.00000859           -5.68        0.10        1.26
   0.00000066  -0.00004630   0.00000423            0.10       -6.81        0.62
   0.00000859   0.00000423  -0.00001866            1.26        0.62       -2.74

 
     init_run     :     19.64s CPU     16.95s WALL (       1 calls)
     electrons    :    201.02s CPU    212.48s WALL (       1 calls)
     forces       :      8.94s CPU      3.99s WALL (       1 calls)
     stress       :     31.37s CPU     31.38s WALL (       1 calls)

     Called by init_run:
     wfcinit      :     11.80s CPU     13.87s WALL (       1 calls)
                                       13.87s GPU  (       1 calls)
     potinit      :      4.61s CPU      1.42s WALL (       1 calls)
     hinit0       :      2.66s CPU      0.96s WALL (       1 calls)

     Called by electrons:
     c_bands      :    120.14s CPU    170.00s WALL (      16 calls)
     sum_band     :     21.80s CPU     21.07s WALL (      16 calls)
                                       21.07s GPU  (      16 calls)
     v_of_rho     :     54.86s CPU     16.69s WALL (      16 calls)
     mix_rho      :      6.51s CPU      5.07s WALL (      16 calls)

     Called by c_bands:
     init_us_2    :      2.31s CPU      3.06s WALL (     280 calls)
                                        3.06s GPU  (     280 calls)
     cegterg      :     80.27s CPU    127.63s WALL (     128 calls)

     Called by *egterg:
     cdiaghg      :     13.36s CPU     25.51s WALL (     629 calls)
                                       25.48s GPU  (     629 calls)
     h_psi        :     54.55s CPU     73.45s WALL (     645 calls)
                                       73.01s GPU  (     645 calls)
     g_psi        :      0.00s CPU      0.36s WALL (     509 calls)
                                        0.35s GPU  (     509 calls)

     Called by h_psi:
     h_psi:calbec :      0.28s CPU      9.96s WALL (     645 calls)
                                        9.95s GPU  (     645 calls)
     vloc_psi     :     39.48s CPU     53.46s WALL (     645 calls)
                                       52.55s GPU  (     645 calls)
     add_vuspsi   :      0.33s CPU      9.95s WALL (     645 calls)
                                        9.94s GPU  (     645 calls)

     General routines
     calbec       :      0.28s CPU      0.39s WALL (     685 calls)
     fft          :     25.41s CPU      6.53s WALL (     185 calls)
                                        0.00s GPU  (       6 calls)
     ffts         :      2.63s CPU      0.67s WALL (      16 calls)
     fftw         :      0.56s CPU     62.01s WALL (   10404 calls)
                                       46.36s GPU  (   10404 calls)
 
     Parallel routines
 
     PWSCF        :   4m22.11s CPU   4m26.05s WALL

 
   This run was terminated on:  23:39:21  22Apr2021            

=------------------------------------------------------------------------------=
   JOB DONE.
=------------------------------------------------------------------------------=
