
     Program PWSCF v.6.7MaX starts on 22Apr2021 at 20:12:18 

     This program is part of the open-source Quantum ESPRESSO suite
     for quantum simulation of materials; please cite
         "P. Giannozzi et al., J. Phys.:Condens. Matter 21 395502 (2009);
         "P. Giannozzi et al., J. Phys.:Condens. Matter 29 465901 (2017);
         "P. Giannozzi et al., J. Chem. Phys. 152 154105 (2020);
          URL http://www.quantum-espresso.org", 
     in publications or presentations arising from this work. More details at
     http://www.quantum-espresso.org/quote

     Parallel version (MPI & OpenMP), running on      16 processor cores
     Number of MPI processes:                 4
     Threads/MPI process:                     4

     MPI processes distributed on     1 nodes
     K-points division:     npool     =       4
     Reading input from ESP_80.pwi
Warning: card &CELL ignored
Warning: card / ignored

     Current dimensions of program PWSCF are:
     Max number of different atomic species (ntypx) = 10
     Max number of k-points (npk) =  40000
     Max angular momentum in pseudopotentials (lmaxx) =  3
     Message from routine read_pp_mesh:
     mesh size missing, using the one in header
     Message from routine read_pp_mesh:
     mesh size missing, using the one in header
     Message from routine read_pp_mesh:
     mesh size missing, using the one in header

     Subspace diagonalization in iterative solution of the eigenvalue problem:
     a serial algorithm will be used

 
     G-vector sticks info
     --------------------
     sticks:   dense  smooth     PW     G-vecs:    dense   smooth      PW
     Sum       12589   12589   3289              1061107  1061107  140905
 
     Using Slab Decomposition
 


     bravais-lattice index     =            0
     lattice parameter (alat)  =      23.7585  a.u.
     unit-cell volume          =   13410.8736 (a.u.)^3
     number of atoms/cell      =           40
     number of atomic types    =            3
     number of electrons       =       352.00
     number of Kohn-Sham states=          176
     kinetic-energy cutoff     =      70.0000  Ry
     charge density cutoff     =     280.0000  Ry
     scf convergence threshold =      1.0E-10
     mixing beta               =       0.7000
     number of iterations used =            8  plain     mixing
     Exchange-correlation= PBESOL
                           (   1   4  10   8   0   0   0)

     GPU acceleration is ACTIVE.


     celldm(1)=  23.758500  celldm(2)=   0.000000  celldm(3)=   0.000000
     celldm(4)=   0.000000  celldm(5)=   0.000000  celldm(6)=   0.000000

     crystal axes: (cart. coord. in units of alat)
               a(1) = (   1.000000   0.000000   0.000000 )  
               a(2) = (   0.000000   1.000000   0.000000 )  
               a(3) = (   0.000000   0.000000   1.000000 )  

     reciprocal axes: (cart. coord. in units 2 pi/alat)
               b(1) = (  1.000000  0.000000  0.000000 )  
               b(2) = (  0.000000  1.000000  0.000000 )  
               b(3) = (  0.000000  0.000000  1.000000 )  


     PseudoPot. # 1 for Cs read from file:
     /m100/home/userexternal/lmonacel/espresso/pseudo/Cs-nc-pbesol.upf
     MD5 check sum: 9d2f2206a14dc5b3b3f3fbfae186bed4
     Pseudo is Norm-conserving + core correction, Zval =  9.0
     Generated using ONCVPSP code by D. R. Hamann
     Using radial grid of 2384 points,  8 beta functions with: 
                l(1) =   0
                l(2) =   0
                l(3) =   1
                l(4) =   1
                l(5) =   2
                l(6) =   2
                l(7) =   3
                l(8) =   3

     PseudoPot. # 2 for Sn read from file:
     /m100/home/userexternal/lmonacel/espresso/pseudo/Sn-nc-pbesol.upf
     MD5 check sum: c2995d571af40102bfea7461443d92cf
     Pseudo is Norm-conserving + core correction, Zval = 14.0
     Generated using ONCVPSP code by D. R. Hamann
     Using radial grid of 1628 points,  6 beta functions with: 
                l(1) =   0
                l(2) =   0
                l(3) =   1
                l(4) =   1
                l(5) =   2
                l(6) =   2

     PseudoPot. # 3 for I  read from file:
     /m100/home/userexternal/lmonacel/espresso/pseudo/I-nc-pbesol.upf
     MD5 check sum: 80ed5ceb2eb9c553cfb6760a299d9c5b
     Pseudo is Norm-conserving + core correction, Zval =  7.0
     Generated using ONCVPSP code by D. R. Hamann
     Using radial grid of 1182 points,  6 beta functions with: 
                l(1) =   0
                l(2) =   0
                l(3) =   1
                l(4) =   1
                l(5) =   2
                l(6) =   2

     atomic species   valence    mass     pseudopotential
        Cs             9.00   132.90545     Cs( 1.00)
        Sn            14.00   118.71000     Sn( 1.00)
        I              7.00   126.90447     I ( 1.00)

     No symmetry found



   Cartesian axes

     site n.     atom                  positions (alat units)
         1           Cs  tau(   1) = (   0.2568593   0.2639508   0.2464945  )
         2           Sn  tau(   2) = (   0.0066096  -0.0153161  -0.0102606  )
         3           I   tau(   3) = (   0.2723420  -0.0525683   0.0403336  )
         4           I   tau(   4) = (  -0.0225279  -0.0260589   0.2507179  )
         5           I   tau(   5) = (   0.0406479   0.2417079  -0.0069971  )
         6           Cs  tau(   6) = (   0.2943686   0.2511019   0.7870539  )
         7           Sn  tau(   7) = (  -0.0012693   0.0046012   0.4876260  )
         8           I   tau(   8) = (   0.2573210  -0.0219272   0.4693335  )
         9           I   tau(   9) = (  -0.0083123  -0.0213858   0.7380896  )
        10           I   tau(  10) = (   0.0194134   0.2515894   0.4867665  )
        11           Cs  tau(  11) = (   0.2560702   0.7673868   0.2464115  )
        12           Sn  tau(  12) = (  -0.0036066   0.4992207   0.0169139  )
        13           I   tau(  13) = (   0.2593727   0.5404751   0.0051886  )
        14           I   tau(  14) = (  -0.0191870   0.4840074   0.2622921  )
        15           I   tau(  15) = (  -0.0356304   0.7417724  -0.0007484  )
        16           Cs  tau(  16) = (   0.2164713   0.7617774   0.7665742  )
        17           Sn  tau(  17) = (  -0.0057239   0.5187397   0.5097662  )
        18           I   tau(  18) = (   0.2457047   0.5070167   0.5080229  )
        19           I   tau(  19) = (  -0.0062127   0.5413427   0.7616422  )
        20           I   tau(  20) = (  -0.0368800   0.7534024   0.4767251  )
        21           Cs  tau(  21) = (   0.7795573   0.2367124   0.2704533  )
        22           Sn  tau(  22) = (   0.5120735  -0.0082980   0.0009141  )
        23           I   tau(  23) = (   0.7718506   0.0074279  -0.0283044  )
        24           I   tau(  24) = (   0.4977749  -0.0075296   0.2420295  )
        25           I   tau(  25) = (   0.4600877   0.2461854   0.0136233  )
        26           Cs  tau(  26) = (   0.7955533   0.2597530   0.7665378  )
        27           Sn  tau(  27) = (   0.5097244  -0.0012714   0.5092258  )
        28           I   tau(  28) = (   0.7599228   0.0260998   0.5144336  )
        29           I   tau(  29) = (   0.5033576   0.0140929   0.7406974  )
        30           I   tau(  30) = (   0.4901315   0.2549582   0.4880003  )
        31           Cs  tau(  31) = (   0.7081037   0.7247569   0.2096150  )
        32           Sn  tau(  32) = (   0.4925039   0.5059609  -0.0069890  )
        33           I   tau(  33) = (   0.7375741   0.4679165   0.0272694  )
        34           I   tau(  34) = (   0.4593819   0.5060185   0.2506639  )
        35           I   tau(  35) = (   0.5450533   0.7614163  -0.0045994  )
        36           Cs  tau(  36) = (   0.7738302   0.7263609   0.7299413  )
        37           Sn  tau(  37) = (   0.5025251   0.5141016   0.4997654  )
        38           I   tau(  38) = (   0.7425973   0.4892593   0.4894624  )
        39           I   tau(  39) = (   0.4943958   0.5299014   0.7430217  )
        40           I   tau(  40) = (   0.4751779   0.7568740   0.5016508  )

     number of k points=    32
                       cart. coord. in units 2pi/alat
        k(    1) = (   0.1250000   0.1250000   0.1250000), wk =   0.0625000
        k(    2) = (   0.1250000   0.1250000   0.3750000), wk =   0.0625000
        k(    3) = (   0.1250000   0.3750000   0.3750000), wk =   0.0625000
        k(    4) = (   0.3750000   0.3750000   0.3750000), wk =   0.0625000
        k(    5) = (  -0.1250000  -0.1250000   0.1250000), wk =   0.0625000
        k(    6) = (  -0.1250000   0.1250000  -0.1250000), wk =   0.0625000
        k(    7) = (   0.1250000  -0.1250000  -0.1250000), wk =   0.0625000
        k(    8) = (  -0.1250000  -0.1250000   0.3750000), wk =   0.0625000
        k(    9) = (  -0.1250000   0.1250000  -0.3750000), wk =   0.0625000
        k(   10) = (   0.1250000  -0.1250000  -0.3750000), wk =   0.0625000
        k(   11) = (   0.3750000  -0.1250000   0.1250000), wk =   0.0625000
        k(   12) = (  -0.3750000  -0.1250000  -0.1250000), wk =   0.0625000
        k(   13) = (   0.3750000   0.1250000  -0.1250000), wk =   0.0625000
        k(   14) = (  -0.3750000   0.1250000   0.1250000), wk =   0.0625000
        k(   15) = (  -0.1250000   0.3750000   0.1250000), wk =   0.0625000
        k(   16) = (  -0.1250000  -0.3750000  -0.1250000), wk =   0.0625000
        k(   17) = (   0.1250000   0.3750000  -0.1250000), wk =   0.0625000
        k(   18) = (   0.1250000  -0.3750000   0.1250000), wk =   0.0625000
        k(   19) = (  -0.1250000  -0.3750000   0.3750000), wk =   0.0625000
        k(   20) = (  -0.1250000   0.3750000  -0.3750000), wk =   0.0625000
        k(   21) = (   0.1250000  -0.3750000  -0.3750000), wk =   0.0625000
        k(   22) = (   0.3750000   0.1250000  -0.3750000), wk =   0.0625000
        k(   23) = (  -0.3750000  -0.1250000  -0.3750000), wk =   0.0625000
        k(   24) = (   0.3750000  -0.1250000   0.3750000), wk =   0.0625000
        k(   25) = (  -0.3750000   0.1250000   0.3750000), wk =   0.0625000
        k(   26) = (   0.3750000  -0.3750000   0.1250000), wk =   0.0625000
        k(   27) = (  -0.3750000  -0.3750000  -0.1250000), wk =   0.0625000
        k(   28) = (   0.3750000   0.3750000  -0.1250000), wk =   0.0625000
        k(   29) = (  -0.3750000   0.3750000   0.1250000), wk =   0.0625000
        k(   30) = (  -0.3750000  -0.3750000   0.3750000), wk =   0.0625000
        k(   31) = (  -0.3750000   0.3750000  -0.3750000), wk =   0.0625000
        k(   32) = (   0.3750000  -0.3750000  -0.3750000), wk =   0.0625000

     Dense  grid:  1061107 G-vectors     FFT dimensions: ( 128, 128, 128)

     Estimated max dynamical RAM per process >       6.82 GB

     Estimated total dynamical RAM >      27.27 GB

     Initial potential from superposition of free atoms

     starting charge  351.69472, renormalised to  352.00000
     Starting wfcs are  208 randomized atomic wfcs

     total cpu time spent up to now is       19.2 secs

     Self-consistent Calculation

     iteration #  1     ecut=    70.00 Ry     beta= 0.70
     Davidson diagonalization with overlap
     ethr =  1.00E-02,  avg # of iterations =  2.0

     Threshold (ethr) on eigenvalues was too large:
     Diagonalizing with lowered threshold

     Davidson diagonalization with overlap
     ethr =  2.26E-04,  avg # of iterations =  4.0

     total cpu time spent up to now is       40.2 secs

     total energy              =   -2255.99633421 Ry
     estimated scf accuracy    <       0.69491809 Ry

     iteration #  2     ecut=    70.00 Ry     beta= 0.70
     Davidson diagonalization with overlap
     ethr =  1.97E-04,  avg # of iterations =  3.3

     total cpu time spent up to now is       53.2 secs

     total energy              =   -2256.20018515 Ry
     estimated scf accuracy    <       0.36162684 Ry

     iteration #  3     ecut=    70.00 Ry     beta= 0.70
     Davidson diagonalization with overlap
     ethr =  1.03E-04,  avg # of iterations =  3.2

     total cpu time spent up to now is       65.1 secs

     total energy              =   -2256.27130952 Ry
     estimated scf accuracy    <       0.03973843 Ry

     iteration #  4     ecut=    70.00 Ry     beta= 0.70
     Davidson diagonalization with overlap
     ethr =  1.13E-05,  avg # of iterations =  4.0

     total cpu time spent up to now is       77.6 secs

     total energy              =   -2256.28315978 Ry
     estimated scf accuracy    <       0.00373420 Ry

     iteration #  5     ecut=    70.00 Ry     beta= 0.70
     Davidson diagonalization with overlap
     ethr =  1.06E-06,  avg # of iterations =  3.7

     total cpu time spent up to now is       90.9 secs

     total energy              =   -2256.28394185 Ry
     estimated scf accuracy    <       0.00175929 Ry

     iteration #  6     ecut=    70.00 Ry     beta= 0.70
     Davidson diagonalization with overlap
     ethr =  5.00E-07,  avg # of iterations =  2.9

     total cpu time spent up to now is      103.0 secs

     total energy              =   -2256.28423508 Ry
     estimated scf accuracy    <       0.00019753 Ry

     iteration #  7     ecut=    70.00 Ry     beta= 0.70
     Davidson diagonalization with overlap
     ethr =  5.61E-08,  avg # of iterations =  4.0

     total cpu time spent up to now is      116.5 secs

     total energy              =   -2256.28428940 Ry
     estimated scf accuracy    <       0.00003683 Ry

     iteration #  8     ecut=    70.00 Ry     beta= 0.70
     Davidson diagonalization with overlap
     ethr =  1.05E-08,  avg # of iterations =  4.0

     total cpu time spent up to now is      129.5 secs

     total energy              =   -2256.28429838 Ry
     estimated scf accuracy    <       0.00000714 Ry

     iteration #  9     ecut=    70.00 Ry     beta= 0.70
     Davidson diagonalization with overlap
     ethr =  2.03E-09,  avg # of iterations =  4.4

     total cpu time spent up to now is      143.5 secs

     total energy              =   -2256.28430102 Ry
     estimated scf accuracy    <       0.00000096 Ry

     iteration # 10     ecut=    70.00 Ry     beta= 0.70
     Davidson diagonalization with overlap
     ethr =  2.71E-10,  avg # of iterations =  5.4

     total cpu time spent up to now is      159.5 secs

     total energy              =   -2256.28430145 Ry
     estimated scf accuracy    <       0.00000043 Ry

     iteration # 11     ecut=    70.00 Ry     beta= 0.70
     Davidson diagonalization with overlap
     ethr =  1.22E-10,  avg # of iterations =  3.3

     total cpu time spent up to now is      172.1 secs

     total energy              =   -2256.28430155 Ry
     estimated scf accuracy    <       0.00000005 Ry

     iteration # 12     ecut=    70.00 Ry     beta= 0.70
     Davidson diagonalization with overlap
     ethr =  1.31E-11,  avg # of iterations =  5.7

     total cpu time spent up to now is      188.4 secs

     total energy              =   -2256.28430158 Ry
     estimated scf accuracy    <       0.00000002 Ry

     iteration # 13     ecut=    70.00 Ry     beta= 0.70
     Davidson diagonalization with overlap
     ethr =  5.78E-12,  avg # of iterations =  3.7

     total cpu time spent up to now is      201.5 secs

     total energy              =   -2256.28430158 Ry
     estimated scf accuracy    <          3.6E-09 Ry

     iteration # 14     ecut=    70.00 Ry     beta= 0.70
     Davidson diagonalization with overlap
     ethr =  1.03E-12,  avg # of iterations =  4.3

     total cpu time spent up to now is      215.4 secs

     total energy              =   -2256.28430159 Ry
     estimated scf accuracy    <          3.8E-10 Ry

     iteration # 15     ecut=    70.00 Ry     beta= 0.70
     Davidson diagonalization with overlap
     ethr =  1.08E-13,  avg # of iterations =  6.5

     total cpu time spent up to now is      233.9 secs

     total energy              =   -2256.28430159 Ry
     estimated scf accuracy    <          1.1E-10 Ry

     iteration # 16     ecut=    70.00 Ry     beta= 0.70
     Davidson diagonalization with overlap
     ethr =  1.00E-13,  avg # of iterations =  2.0

     total cpu time spent up to now is      245.0 secs

     End of self-consistent calculation

          k = 0.1250 0.1250 0.1250 (132670 PWs)   bands (ev):

   -18.6184 -18.5554 -18.5485 -18.5423 -18.5374 -18.5294 -18.4221 -18.4113
   -18.3984 -18.3965 -18.3950 -18.3942 -18.3898 -18.3841 -18.3793 -18.3759
   -18.3731 -18.3665 -18.3364 -18.3220 -18.2811 -18.2778 -18.2711 -18.2631
   -18.2586 -18.2565 -18.2523 -18.2475 -18.2467 -18.2387 -18.2374 -18.1805
   -18.1330 -18.1207 -18.1188 -18.1143 -18.1093 -18.1088 -18.1066 -18.1028
   -18.0980 -18.0969 -18.0937 -18.0930 -18.0868 -18.0856 -18.0826 -18.0299
    -9.4765  -9.3730  -9.2591  -9.2369  -9.1566  -9.1120  -9.0870  -9.0716
    -9.0239  -9.0110  -8.9896  -8.9295  -8.9130  -8.8934  -8.8764  -8.8463
    -8.8126  -8.7543  -8.7318  -8.6495  -8.6345  -8.5063  -8.4530  -8.3685
    -5.3844  -5.3719  -5.3637  -5.2054  -5.1967  -5.1940  -5.1858  -5.1832
    -5.1577  -5.1389  -5.1238  -5.1180  -5.1113  -5.0940  -5.0916  -5.0886
    -5.0681  -5.0653  -4.9585  -4.9523  -4.9460  -4.8642  -4.8401  -4.8214
    -4.4740  -3.9794  -3.9358  -3.9116  -3.4134  -3.3827  -3.3473  -2.7496
    -0.8123  -0.7214  -0.6415  -0.6236  -0.5798  -0.5450  -0.5363  -0.4785
    -0.4231  -0.3306  -0.2515  -0.1481   0.3958   0.4302   0.5002   0.6162
     0.6515   0.6660   0.6988   0.7418   0.7899   0.8714   0.9051   0.9218
     0.9890   1.0329   1.0643   1.0947   1.1136   1.1528   1.1670   1.1912
     1.2112   1.2416   1.2659   1.2740   1.2998   1.3069   1.3444   1.3587
     1.3879   1.4090   1.4389   1.4572   1.4806   1.4838   1.5232   1.5471
     1.5946   1.6098   1.6347   1.6586   1.6701   1.6961   1.7332   1.7662
     1.8042   1.8613   1.8763   1.9344   1.9750   2.0147   2.0673   2.1184
     2.1558   2.2069   2.2302   2.3298   2.6008   2.6749   2.7676   3.0954

          k = 0.1250 0.1250 0.3750 (132608 PWs)   bands (ev):

   -18.6184 -18.5554 -18.5485 -18.5422 -18.5374 -18.5294 -18.4221 -18.4113
   -18.3984 -18.3965 -18.3950 -18.3942 -18.3898 -18.3841 -18.3793 -18.3759
   -18.3731 -18.3665 -18.3364 -18.3220 -18.2811 -18.2778 -18.2711 -18.2631
   -18.2586 -18.2565 -18.2523 -18.2475 -18.2467 -18.2387 -18.2374 -18.1805
   -18.1330 -18.1207 -18.1188 -18.1143 -18.1093 -18.1088 -18.1066 -18.1028
   -18.0980 -18.0969 -18.0937 -18.0930 -18.0868 -18.0856 -18.0826 -18.0299
    -9.4674  -9.3620  -9.2778  -9.2342  -9.1636  -9.1267  -9.1102  -9.0689
    -9.0212  -9.0092  -8.9836  -8.9312  -8.8985  -8.8910  -8.8607  -8.8318
    -8.8097  -8.7667  -8.7297  -8.6510  -8.6389  -8.5084  -8.4552  -8.3687
    -5.3844  -5.3719  -5.3636  -5.2053  -5.1967  -5.1937  -5.1856  -5.1831
    -5.1576  -5.1379  -5.1230  -5.1178  -5.1124  -5.0945  -5.0918  -5.0889
    -5.0681  -5.0656  -4.9586  -4.9525  -4.9460  -4.8637  -4.8401  -4.8216
    -4.3512  -4.0896  -3.8566  -3.8130  -3.5629  -3.5342  -3.2869  -2.9626
    -0.7208  -0.6523  -0.5995  -0.5819  -0.5088  -0.4693  -0.4385  -0.2129
    -0.1488  -0.1006  -0.0645   0.0554   0.3823   0.4106   0.4634   0.5076
     0.5403   0.5655   0.6153   0.6409   0.6915   0.7236   0.7567   0.8210
     0.8512   0.8772   0.9360   1.0228   1.0789   1.1185   1.1541   1.1701
     1.1899   1.2242   1.2370   1.2649   1.2982   1.3149   1.3423   1.3599
     1.3905   1.4316   1.4430   1.4720   1.4866   1.5057   1.5258   1.5435
     1.6024   1.6318   1.6553   1.6973   1.7071   1.7387   1.7472   1.7776
     1.8119   1.8461   1.8737   1.9121   1.9405   1.9849   2.0094   2.0469
     2.0868   2.1377   2.1975   2.2718   2.4174   2.5738   2.6123   2.9289

          k = 0.1250 0.3750 0.3750 (132616 PWs)   bands (ev):

   -18.6184 -18.5554 -18.5485 -18.5422 -18.5374 -18.5294 -18.4221 -18.4113
   -18.3984 -18.3965 -18.3950 -18.3942 -18.3898 -18.3841 -18.3793 -18.3759
   -18.3731 -18.3665 -18.3364 -18.3220 -18.2811 -18.2778 -18.2711 -18.2631
   -18.2586 -18.2565 -18.2523 -18.2475 -18.2467 -18.2387 -18.2374 -18.1805
   -18.1330 -18.1207 -18.1188 -18.1143 -18.1093 -18.1088 -18.1066 -18.1028
   -18.0980 -18.0969 -18.0937 -18.0930 -18.0868 -18.0856 -18.0826 -18.0299
    -9.4589  -9.3591  -9.2691  -9.2538  -9.1702  -9.1317  -9.1248  -9.0753
    -9.0125  -8.9962  -8.9767  -8.9303  -8.8965  -8.8853  -8.8658  -8.8281
    -8.8144  -8.7658  -8.7300  -8.6511  -8.6378  -8.5074  -8.4500  -8.3756
    -5.3842  -5.3719  -5.3637  -5.2047  -5.1974  -5.1935  -5.1856  -5.1833
    -5.1575  -5.1381  -5.1230  -5.1176  -5.1128  -5.0943  -5.0919  -5.0886
    -5.0679  -5.0658  -4.9586  -4.9526  -4.9460  -4.8634  -4.8402  -4.8214
    -4.2502  -3.9849  -3.9604  -3.7461  -3.6993  -3.4512  -3.4396  -3.1387
    -0.6751  -0.5684  -0.5277  -0.4453  -0.3526  -0.2923  -0.1576  -0.1323
    -0.0863  -0.0129   0.0176   0.1718   0.3130   0.3744   0.4154   0.4749
     0.4894   0.5025   0.5318   0.5811   0.6226   0.6914   0.7053   0.7520
     0.8214   0.8889   0.9065   0.9832   1.0131   1.0500   1.0839   1.1031
     1.1320   1.1516   1.1887   1.2265   1.2513   1.2743   1.2958   1.3398
     1.3760   1.3874   1.4311   1.4385   1.4697   1.5234   1.5538   1.5907
     1.6276   1.6472   1.6909   1.7121   1.7251   1.7381   1.7712   1.8046
     1.8279   1.8368   1.8579   1.9039   1.9409   1.9631   1.9706   2.0296
     2.0346   2.0858   2.1631   2.2191   2.2858   2.3749   2.5592   2.6469

          k = 0.3750 0.3750 0.3750 (132612 PWs)   bands (ev):

   -18.6184 -18.5554 -18.5485 -18.5422 -18.5374 -18.5294 -18.4221 -18.4113
   -18.3984 -18.3965 -18.3950 -18.3942 -18.3898 -18.3841 -18.3793 -18.3759
   -18.3731 -18.3665 -18.3364 -18.3220 -18.2811 -18.2778 -18.2711 -18.2631
   -18.2586 -18.2565 -18.2523 -18.2475 -18.2467 -18.2387 -18.2374 -18.1805
   -18.1330 -18.1207 -18.1188 -18.1143 -18.1093 -18.1088 -18.1066 -18.1027
   -18.0980 -18.0969 -18.0937 -18.0930 -18.0868 -18.0856 -18.0826 -18.0299
    -9.4390  -9.3873  -9.2559  -9.2300  -9.1882  -9.1546  -9.1347  -9.0739
    -9.0112  -8.9950  -8.9774  -8.9148  -8.8906  -8.8841  -8.8670  -8.8296
    -8.8184  -8.7652  -8.7266  -8.6560  -8.6320  -8.5067  -8.4498  -8.3785
    -5.3843  -5.3720  -5.3637  -5.2048  -5.1972  -5.1937  -5.1854  -5.1836
    -5.1577  -5.1378  -5.1230  -5.1183  -5.1119  -5.0941  -5.0918  -5.0886
    -5.0679  -5.0658  -4.9585  -4.9522  -4.9461  -4.8639  -4.8399  -4.8216
    -4.1338  -3.9384  -3.8515  -3.8269  -3.6328  -3.6115  -3.5646  -3.3123
    -0.4610  -0.3825  -0.3153  -0.2843  -0.2341  -0.1596  -0.1306  -0.0927
    -0.0358   0.0270   0.0804   0.1972   0.2801   0.3265   0.3788   0.4183
     0.4518   0.4674   0.4969   0.5521   0.5670   0.5963   0.6456   0.7425
     0.7998   0.8792   0.9097   0.9494   0.9717   1.0153   1.0257   1.0397
     1.0886   1.1142   1.1261   1.1755   1.1913   1.2241   1.2440   1.2918
     1.3542   1.3801   1.4112   1.4379   1.4876   1.5377   1.5899   1.6083
     1.6201   1.6587   1.6828   1.7141   1.7440   1.7552   1.7700   1.7997
     1.8304   1.8484   1.8571   1.8927   1.9212   1.9496   1.9807   2.0170
     2.0302   2.0708   2.1197   2.1386   2.2087   2.2259   2.3123   2.3505

          k =-0.1250-0.1250 0.1250 (132670 PWs)   bands (ev):

   -18.6184 -18.5554 -18.5485 -18.5423 -18.5374 -18.5294 -18.4221 -18.4113
   -18.3984 -18.3965 -18.3950 -18.3942 -18.3898 -18.3841 -18.3793 -18.3759
   -18.3731 -18.3665 -18.3364 -18.3220 -18.2811 -18.2778 -18.2711 -18.2631
   -18.2586 -18.2565 -18.2523 -18.2475 -18.2467 -18.2387 -18.2374 -18.1805
   -18.1330 -18.1207 -18.1188 -18.1143 -18.1093 -18.1088 -18.1066 -18.1028
   -18.0980 -18.0969 -18.0937 -18.0930 -18.0868 -18.0856 -18.0826 -18.0299
    -9.4763  -9.3734  -9.2575  -9.2381  -9.1549  -9.1158  -9.0934  -9.0651
    -9.0210  -9.0070  -8.9900  -8.9343  -8.9147  -8.8869  -8.8818  -8.8458
    -8.8133  -8.7555  -8.7300  -8.6490  -8.6344  -8.5065  -8.4531  -8.3684
    -5.3844  -5.3719  -5.3637  -5.2054  -5.1967  -5.1941  -5.1857  -5.1833
    -5.1576  -5.1388  -5.1239  -5.1180  -5.1111  -5.0939  -5.0916  -5.0887
    -5.0681  -5.0654  -4.9586  -4.9523  -4.9460  -4.8642  -4.8401  -4.8213
    -4.4736  -3.9860  -3.9355  -3.9048  -3.4252  -3.3777  -3.3407  -2.7501
    -0.7949  -0.7080  -0.6593  -0.6289  -0.5987  -0.5634  -0.5257  -0.4759
    -0.4338  -0.3142  -0.2467  -0.1410   0.3963   0.4273   0.5026   0.6166
     0.6356   0.6729   0.7009   0.7314   0.7908   0.8855   0.9147   0.9349
     0.9975   1.0503   1.0721   1.0933   1.1122   1.1348   1.1628   1.1885
     1.2160   1.2238   1.2375   1.2679   1.2986   1.3101   1.3436   1.3522
     1.3733   1.4162   1.4299   1.4595   1.4901   1.5064   1.5355   1.5515
     1.5788   1.5996   1.6465   1.6690   1.6778   1.6882   1.7406   1.7712
     1.7950   1.8553   1.8754   1.9300   1.9667   2.0247   2.0788   2.1216
     2.1613   2.1938   2.2245   2.3232   2.5931   2.6605   2.7717   3.1279

          k =-0.1250 0.1250-0.1250 (132670 PWs)   bands (ev):

   -18.6184 -18.5554 -18.5485 -18.5423 -18.5374 -18.5294 -18.4221 -18.4113
   -18.3984 -18.3965 -18.3950 -18.3942 -18.3898 -18.3841 -18.3793 -18.3759
   -18.3731 -18.3665 -18.3364 -18.3220 -18.2811 -18.2778 -18.2711 -18.2631
   -18.2586 -18.2565 -18.2523 -18.2475 -18.2467 -18.2387 -18.2374 -18.1805
   -18.1330 -18.1207 -18.1188 -18.1143 -18.1093 -18.1088 -18.1066 -18.1028
   -18.0980 -18.0969 -18.0937 -18.0930 -18.0868 -18.0856 -18.0826 -18.0299
    -9.4765  -9.3729  -9.2619  -9.2326  -9.1535  -9.1199  -9.0892  -9.0698
    -9.0195  -9.0078  -8.9910  -8.9314  -8.9142  -8.8933  -8.8762  -8.8453
    -8.8130  -8.7573  -8.7284  -8.6500  -8.6345  -8.5062  -8.4531  -8.3685
    -5.3844  -5.3719  -5.3637  -5.2054  -5.1966  -5.1941  -5.1857  -5.1831
    -5.1577  -5.1390  -5.1239  -5.1181  -5.1110  -5.0939  -5.0915  -5.0887
    -5.0681  -5.0653  -4.9585  -4.9523  -4.9460  -4.8642  -4.8401  -4.8213
    -4.4740  -3.9808  -3.9365  -3.9091  -3.4137  -3.3792  -3.3509  -2.7495
    -0.8095  -0.7021  -0.6597  -0.6213  -0.5914  -0.5654  -0.5240  -0.4496
    -0.4394  -0.3368  -0.2497  -0.1404   0.3958   0.4290   0.4987   0.6105
     0.6526   0.6652   0.6990   0.7373   0.7912   0.8432   0.9227   0.9577
     0.9988   1.0419   1.0649   1.0823   1.1036   1.1425   1.1730   1.1915
     1.2149   1.2266   1.2486   1.2763   1.2943   1.3180   1.3272   1.3543
     1.3861   1.4120   1.4398   1.4491   1.4753   1.5179   1.5344   1.5526
     1.5948   1.6107   1.6322   1.6560   1.6842   1.7062   1.7377   1.7730
     1.7912   1.8519   1.8788   1.9306   1.9737   2.0191   2.0547   2.1077
     2.1539   2.2036   2.2281   2.3446   2.5996   2.6591   2.7660   3.1210

          k = 0.1250-0.1250-0.1250 (132670 PWs)   bands (ev):

   -18.6184 -18.5554 -18.5485 -18.5423 -18.5374 -18.5294 -18.4221 -18.4113
   -18.3984 -18.3965 -18.3950 -18.3942 -18.3898 -18.3841 -18.3793 -18.3759
   -18.3731 -18.3665 -18.3364 -18.3220 -18.2811 -18.2778 -18.2711 -18.2631
   -18.2586 -18.2565 -18.2523 -18.2475 -18.2467 -18.2387 -18.2374 -18.1805
   -18.1330 -18.1207 -18.1188 -18.1143 -18.1093 -18.1088 -18.1066 -18.1028
   -18.0980 -18.0969 -18.0937 -18.0930 -18.0868 -18.0856 -18.0826 -18.0299
    -9.4764  -9.3733  -9.2596  -9.2352  -9.1557  -9.1176  -9.0890  -9.0647
    -9.0268  -9.0110  -8.9843  -8.9333  -8.9129  -8.8881  -8.8818  -8.8462
    -8.8123  -8.7580  -8.7285  -8.6493  -8.6343  -8.5063  -8.4532  -8.3685
    -5.3844  -5.3719  -5.3637  -5.2054  -5.1966  -5.1941  -5.1858  -5.1831
    -5.1576  -5.1390  -5.1238  -5.1177  -5.1114  -5.0939  -5.0916  -5.0887
    -5.0681  -5.0654  -4.9585  -4.9523  -4.9461  -4.8641  -4.8401  -4.8213
    -4.4739  -3.9850  -3.9347  -3.9061  -3.4254  -3.3766  -3.3417  -2.7504
    -0.8107  -0.6947  -0.6556  -0.6283  -0.5997  -0.5507  -0.5275  -0.4665
    -0.4307  -0.3373  -0.2617  -0.1251   0.3943   0.4286   0.5012   0.6126
     0.6476   0.6712   0.7077   0.7363   0.7849   0.8541   0.9144   0.9501
     0.9917   1.0270   1.0615   1.0844   1.1150   1.1556   1.1778   1.1839
     1.2109   1.2285   1.2561   1.2759   1.3025   1.3131   1.3362   1.3524
     1.3897   1.4059   1.4361   1.4568   1.4785   1.4920   1.5211   1.5584
     1.5909   1.6173   1.6292   1.6561   1.6720   1.6916   1.7466   1.7687
     1.8099   1.8560   1.8839   1.9306   1.9749   2.0273   2.0825   2.1138
     2.1512   2.1926   2.2283   2.3308   2.5984   2.6556   2.7526   3.1265

          k =-0.1250-0.1250 0.3750 (132608 PWs)   bands (ev):

   -18.6184 -18.5554 -18.5485 -18.5422 -18.5374 -18.5294 -18.4221 -18.4113
   -18.3984 -18.3965 -18.3950 -18.3942 -18.3898 -18.3841 -18.3793 -18.3759
   -18.3731 -18.3665 -18.3364 -18.3220 -18.2811 -18.2778 -18.2711 -18.2631
   -18.2586 -18.2565 -18.2523 -18.2475 -18.2467 -18.2387 -18.2374 -18.1805
   -18.1330 -18.1207 -18.1188 -18.1143 -18.1093 -18.1088 -18.1066 -18.1028
   -18.0980 -18.0969 -18.0937 -18.0930 -18.0868 -18.0856 -18.0826 -18.0299
    -9.4672  -9.3627  -9.2769  -9.2341  -9.1630  -9.1289  -9.1131  -9.0679
    -9.0191  -9.0012  -8.9850  -8.9388  -8.9016  -8.8847  -8.8619  -8.8318
    -8.8108  -8.7680  -8.7279  -8.6506  -8.6388  -8.5086  -8.4553  -8.3687
    -5.3844  -5.3719  -5.3636  -5.2053  -5.1967  -5.1938  -5.1856  -5.1832
    -5.1575  -5.1378  -5.1231  -5.1178  -5.1122  -5.0944  -5.0918  -5.0890
    -5.0682  -5.0657  -4.9586  -4.9525  -4.9460  -4.8638  -4.8401  -4.8216
    -4.3499  -4.0942  -3.8513  -3.8125  -3.5666  -3.5366  -3.2818  -2.9640
    -0.7047  -0.6427  -0.5988  -0.5802  -0.5101  -0.4982  -0.4605  -0.2322
    -0.1314  -0.0892  -0.0459   0.0604   0.3706   0.4033   0.4629   0.5025
     0.5385   0.5885   0.6031   0.6397   0.7019   0.7433   0.7719   0.8067
     0.8368   0.8882   0.9553   1.0089   1.0606   1.1233   1.1408   1.1852
     1.2069   1.2251   1.2344   1.2512   1.2777   1.3042   1.3246   1.3793
     1.3876   1.4195   1.4333   1.4551   1.4823   1.5279   1.5478   1.5628
     1.6090   1.6179   1.6693   1.6809   1.7146   1.7289   1.7610   1.7887
     1.8087   1.8496   1.8699   1.9157   1.9428   1.9629   2.0207   2.0534
     2.0651   2.1454   2.1919   2.2747   2.4232   2.5545   2.6078   2.9524

          k =-0.1250 0.1250-0.3750 (132608 PWs)   bands (ev):

   -18.6184 -18.5554 -18.5485 -18.5422 -18.5374 -18.5294 -18.4221 -18.4113
   -18.3984 -18.3965 -18.3950 -18.3942 -18.3898 -18.3841 -18.3793 -18.3759
   -18.3731 -18.3665 -18.3364 -18.3220 -18.2811 -18.2778 -18.2711 -18.2631
   -18.2586 -18.2565 -18.2523 -18.2475 -18.2467 -18.2387 -18.2374 -18.1805
   -18.1330 -18.1207 -18.1188 -18.1143 -18.1093 -18.1088 -18.1066 -18.1028
   -18.0980 -18.0969 -18.0937 -18.0930 -18.0868 -18.0856 -18.0826 -18.0299
    -9.4675  -9.3620  -9.2785  -9.2322  -9.1621  -9.1296  -9.1126  -9.0694
    -9.0190  -9.0020  -8.9879  -8.9353  -8.9015  -8.8857  -8.8594  -8.8329
    -8.8100  -8.7681  -8.7281  -8.6517  -8.6385  -8.5084  -8.4552  -8.3687
    -5.3844  -5.3719  -5.3636  -5.2053  -5.1966  -5.1939  -5.1855  -5.1830
    -5.1576  -5.1380  -5.1231  -5.1181  -5.1120  -5.0945  -5.0918  -5.0890
    -5.0682  -5.0656  -4.9586  -4.9526  -4.9460  -4.8638  -4.8401  -4.8216
    -4.3509  -4.0907  -3.8566  -3.8117  -3.5600  -3.5371  -3.2879  -2.9621
    -0.7065  -0.6540  -0.5974  -0.5852  -0.5158  -0.4714  -0.4548  -0.2171
    -0.1418  -0.0919  -0.0459   0.0447   0.3691   0.4036   0.4760   0.5022
     0.5382   0.5726   0.6135   0.6402   0.6932   0.7222   0.7764   0.8060
     0.8659   0.8829   0.9503   1.0100   1.0411   1.1219   1.1614   1.1794
     1.2011   1.2148   1.2401   1.2596   1.2739   1.3082   1.3179   1.3537
     1.3939   1.4348   1.4464   1.4720   1.4869   1.5200   1.5475   1.5688
     1.6091   1.6305   1.6587   1.6900   1.7180   1.7301   1.7530   1.7753
     1.8188   1.8484   1.8773   1.8981   1.9513   1.9632   2.0097   2.0458
     2.0715   2.1463   2.1948   2.2815   2.4144   2.5654   2.5982   2.9490

          k = 0.1250-0.1250-0.3750 (132608 PWs)   bands (ev):

   -18.6184 -18.5554 -18.5485 -18.5422 -18.5374 -18.5294 -18.4221 -18.4113
   -18.3984 -18.3965 -18.3950 -18.3942 -18.3898 -18.3841 -18.3793 -18.3759
   -18.3731 -18.3665 -18.3364 -18.3220 -18.2811 -18.2778 -18.2711 -18.2631
   -18.2586 -18.2565 -18.2523 -18.2475 -18.2467 -18.2387 -18.2374 -18.1805
   -18.1330 -18.1207 -18.1188 -18.1143 -18.1093 -18.1088 -18.1066 -18.1028
   -18.0980 -18.0969 -18.0937 -18.0930 -18.0868 -18.0856 -18.0826 -18.0299
    -9.4673  -9.3627  -9.2767  -9.2343  -9.1632  -9.1304  -9.1089  -9.0672
    -9.0231  -9.0082  -8.9784  -8.9372  -8.8980  -8.8893  -8.8607  -8.8322
    -8.8091  -8.7694  -8.7283  -8.6510  -8.6382  -8.5085  -8.4553  -8.3687
    -5.3844  -5.3719  -5.3636  -5.2054  -5.1966  -5.1939  -5.1856  -5.1830
    -5.1575  -5.1380  -5.1230  -5.1176  -5.1125  -5.0945  -5.0918  -5.0890
    -5.0682  -5.0657  -4.9585  -4.9525  -4.9460  -4.8637  -4.8401  -4.8216
    -4.3504  -4.0930  -3.8531  -3.8112  -3.5630  -3.5405  -3.2817  -2.9642
    -0.7118  -0.6470  -0.6049  -0.5748  -0.5113  -0.4741  -0.4565  -0.2282
    -0.1386  -0.1008  -0.0623   0.0761   0.3852   0.4042   0.4602   0.4980
     0.5505   0.5695   0.5974   0.6482   0.6980   0.7380   0.7805   0.8089
     0.8417   0.8702   0.9398   1.0234   1.0521   1.1240   1.1375   1.1665
     1.1984   1.2287   1.2463   1.2652   1.2888   1.2966   1.3352   1.3637
     1.3939   1.4215   1.4522   1.4727   1.4909   1.5064   1.5312   1.5643
     1.6050   1.6236   1.6660   1.6729   1.7096   1.7408   1.7522   1.7841
     1.8156   1.8579   1.8840   1.9123   1.9471   1.9808   2.0110   2.0504
     2.0850   2.1480   2.1746   2.2695   2.4088   2.5604   2.5959   2.9536

          k = 0.3750-0.1250 0.1250 (132608 PWs)   bands (ev):

   -18.6184 -18.5554 -18.5485 -18.5422 -18.5374 -18.5294 -18.4221 -18.4113
   -18.3984 -18.3965 -18.3950 -18.3942 -18.3898 -18.3841 -18.3793 -18.3759
   -18.3731 -18.3665 -18.3364 -18.3220 -18.2811 -18.2778 -18.2711 -18.2631
   -18.2586 -18.2565 -18.2523 -18.2475 -18.2467 -18.2387 -18.2374 -18.1805
   -18.1330 -18.1207 -18.1188 -18.1143 -18.1093 -18.1088 -18.1066 -18.1027
   -18.0980 -18.0969 -18.0937 -18.0930 -18.0868 -18.0856 -18.0826 -18.0299
    -9.4536  -9.4041  -9.2486  -9.2074  -9.1804  -9.1452  -9.0904  -9.0693
    -9.0174  -9.0063  -8.9857  -8.9207  -8.9123  -8.8948  -8.8707  -8.8452
    -8.8206  -8.7532  -8.7258  -8.6548  -8.6284  -8.5065  -8.4524  -8.3726
    -5.3844  -5.3719  -5.3637  -5.2053  -5.1967  -5.1939  -5.1855  -5.1830
    -5.1576  -5.1392  -5.1238  -5.1188  -5.1104  -5.0940  -5.0915  -5.0887
    -5.0680  -5.0653  -4.9587  -4.9522  -4.9463  -4.8648  -4.8401  -4.8215
    -4.3531  -4.1345  -3.8208  -3.7876  -3.5885  -3.5497  -3.2311  -2.9545
    -0.7815  -0.6569  -0.6320  -0.5983  -0.5193  -0.4779  -0.4101  -0.3597
    -0.2007  -0.0818  -0.0050   0.1292   0.3295   0.4398   0.4455   0.5023
     0.5588   0.5869   0.6149   0.6455   0.6923   0.7268   0.7826   0.8533
     0.8953   0.9251   0.9928   1.0411   1.0591   1.1134   1.1384   1.1535
     1.1898   1.2226   1.2496   1.2842   1.2962   1.3303   1.3494   1.3881
     1.4031   1.4160   1.4323   1.4537   1.4875   1.5112   1.5499   1.5695
     1.5978   1.6229   1.6402   1.6621   1.6815   1.7082   1.7508   1.7762
     1.7900   1.8215   1.8904   1.9310   1.9669   1.9741   2.0172   2.0578
     2.0982   2.1619   2.2324   2.2924   2.3865   2.4403   2.7087   2.8984

          k =-0.3750-0.1250-0.1250 (132608 PWs)   bands (ev):

   -18.6184 -18.5554 -18.5485 -18.5422 -18.5374 -18.5294 -18.4221 -18.4113
   -18.3984 -18.3965 -18.3950 -18.3942 -18.3898 -18.3841 -18.3793 -18.3759
   -18.3731 -18.3665 -18.3364 -18.3220 -18.2811 -18.2778 -18.2711 -18.2631
   -18.2586 -18.2565 -18.2523 -18.2475 -18.2467 -18.2387 -18.2374 -18.1805
   -18.1330 -18.1207 -18.1188 -18.1143 -18.1093 -18.1088 -18.1066 -18.1027
   -18.0980 -18.0969 -18.0937 -18.0930 -18.0868 -18.0856 -18.0826 -18.0299
    -9.4535  -9.4043  -9.2455  -9.2143  -9.1811  -9.1392  -9.0886  -9.0697
    -9.0199  -9.0086  -8.9850  -8.9213  -8.9116  -8.8928  -8.8711  -8.8462
    -8.8198  -8.7508  -8.7288  -8.6542  -8.6284  -8.5066  -8.4523  -8.3726
    -5.3844  -5.3719  -5.3637  -5.2053  -5.1968  -5.1938  -5.1855  -5.1831
    -5.1576  -5.1391  -5.1238  -5.1187  -5.1107  -5.0941  -5.0916  -5.0886
    -5.0680  -5.0654  -4.9587  -4.9522  -4.9463  -4.8647  -4.8401  -4.8216
    -4.3530  -4.1350  -3.8182  -3.7902  -3.5869  -3.5514  -3.2306  -2.9546
    -0.7842  -0.6720  -0.6089  -0.6017  -0.5145  -0.4733  -0.4208  -0.3620
    -0.1985  -0.0847  -0.0011   0.1207   0.3228   0.4434   0.4802   0.5043
     0.5524   0.5786   0.6116   0.6574   0.6725   0.7356   0.7847   0.8500
     0.8837   0.9162   1.0159   1.0296   1.0680   1.0887   1.1198   1.1615
     1.2065   1.2355   1.2638   1.2898   1.3047   1.3320   1.3619   1.3714
     1.3885   1.4089   1.4419   1.4612   1.4808   1.5086   1.5238   1.5778
     1.5916   1.6117   1.6374   1.6519   1.6891   1.7111   1.7406   1.7840
     1.7942   1.8273   1.8840   1.9235   1.9428   1.9876   2.0306   2.0794
     2.1145   2.1688   2.2368   2.2907   2.3626   2.4668   2.6959   2.8803

          k = 0.3750 0.1250-0.1250 (132608 PWs)   bands (ev):

   -18.6184 -18.5554 -18.5485 -18.5422 -18.5374 -18.5294 -18.4221 -18.4113
   -18.3984 -18.3965 -18.3950 -18.3942 -18.3898 -18.3841 -18.3793 -18.3759
   -18.3731 -18.3665 -18.3364 -18.3220 -18.2811 -18.2778 -18.2711 -18.2631
   -18.2586 -18.2565 -18.2523 -18.2475 -18.2467 -18.2387 -18.2374 -18.1805
   -18.1330 -18.1207 -18.1188 -18.1143 -18.1093 -18.1088 -18.1066 -18.1027
   -18.0980 -18.0969 -18.0937 -18.0930 -18.0868 -18.0856 -18.0826 -18.0299
    -9.4531  -9.4048  -9.2440  -9.2165  -9.1785  -9.1416  -9.0941  -9.0651
    -9.0183  -9.0056  -8.9843  -8.9239  -8.9140  -8.8887  -8.8744  -8.8458
    -8.8209  -8.7516  -8.7273  -8.6539  -8.6281  -8.5068  -8.4524  -8.3726
    -5.3844  -5.3719  -5.3637  -5.2053  -5.1968  -5.1939  -5.1854  -5.1832
    -5.1575  -5.1390  -5.1238  -5.1188  -5.1105  -5.0940  -5.0916  -5.0888
    -5.0680  -5.0655  -4.9587  -4.9522  -4.9463  -4.8647  -4.8401  -4.8215
    -4.3518  -4.1373  -3.8187  -3.7861  -3.5926  -3.5505  -3.2262  -2.9564
    -0.7764  -0.6537  -0.6340  -0.5989  -0.5246  -0.4718  -0.4236  -0.3523
    -0.2232  -0.0901   0.0197   0.1277   0.3287   0.4448   0.4818   0.5011
     0.5490   0.5660   0.6252   0.6492   0.6953   0.7453   0.7722   0.8401
     0.8746   0.9301   1.0111   1.0367   1.0623   1.1153   1.1365   1.1520
     1.1835   1.2105   1.2586   1.2755   1.3027   1.3365   1.3555   1.3781
     1.3980   1.4191   1.4343   1.4565   1.4803   1.5195   1.5320   1.5770
     1.5914   1.6042   1.6539   1.6643   1.6831   1.6955   1.7393   1.7813
     1.8051   1.8273   1.8806   1.9204   1.9448   1.9940   2.0374   2.0826
     2.1249   2.1641   2.2250   2.2576   2.3492   2.4695   2.7116   2.9016

          k =-0.3750 0.1250 0.1250 (132608 PWs)   bands (ev):

   -18.6184 -18.5554 -18.5485 -18.5423 -18.5374 -18.5294 -18.4221 -18.4113
   -18.3984 -18.3965 -18.3950 -18.3942 -18.3898 -18.3841 -18.3793 -18.3759
   -18.3731 -18.3665 -18.3364 -18.3220 -18.2811 -18.2778 -18.2711 -18.2631
   -18.2586 -18.2565 -18.2523 -18.2475 -18.2467 -18.2387 -18.2374 -18.1805
   -18.1330 -18.1207 -18.1188 -18.1143 -18.1093 -18.1088 -18.1066 -18.1027
   -18.0980 -18.0969 -18.0937 -18.0930 -18.0868 -18.0856 -18.0826 -18.0299
    -9.4532  -9.4047  -9.2463  -9.2107  -9.1820  -9.1429  -9.0909  -9.0644
    -9.0224  -9.0090  -8.9798  -8.9248  -8.9125  -8.8878  -8.8754  -8.8463
    -8.8193  -8.7542  -8.7257  -8.6540  -8.6281  -8.5065  -8.4525  -8.3726
    -5.3844  -5.3719  -5.3637  -5.2053  -5.1967  -5.1939  -5.1855  -5.1830
    -5.1575  -5.1392  -5.1238  -5.1185  -5.1108  -5.0940  -5.0916  -5.0887
    -5.0680  -5.0654  -4.9586  -4.9522  -4.9463  -4.8647  -4.8400  -4.8216
    -4.3524  -4.1372  -3.8160  -3.7877  -3.5921  -3.5515  -3.2268  -2.9564
    -0.7851  -0.6655  -0.6203  -0.5805  -0.5284  -0.4682  -0.4215  -0.3635
    -0.2197  -0.0887   0.0083   0.1385   0.3324   0.4428   0.4479   0.5055
     0.5572   0.5782   0.6222   0.6565   0.6970   0.7283   0.7698   0.8523
     0.8819   0.9189   1.0106   1.0539   1.0700   1.0824   1.1008   1.1550
     1.1956   1.2290   1.2742   1.2930   1.3101   1.3251   1.3481   1.3750
     1.4053   1.4187   1.4331   1.4677   1.4862   1.5118   1.5345   1.5525
     1.5854   1.6115   1.6301   1.6611   1.6823   1.7005   1.7523   1.7893
     1.8037   1.8299   1.8875   1.9302   1.9529   1.9797   2.0449   2.0624
     2.1233   2.1785   2.2016   2.2951   2.3826   2.4442   2.6681   2.9127

          k =-0.1250 0.3750 0.1250 (132608 PWs)   bands (ev):

   -18.6184 -18.5554 -18.5485 -18.5422 -18.5374 -18.5294 -18.4221 -18.4113
   -18.3984 -18.3965 -18.3950 -18.3942 -18.3898 -18.3841 -18.3793 -18.3759
   -18.3731 -18.3665 -18.3364 -18.3220 -18.2811 -18.2778 -18.2711 -18.2631
   -18.2586 -18.2565 -18.2523 -18.2475 -18.2467 -18.2387 -18.2374 -18.1805
   -18.1330 -18.1207 -18.1188 -18.1143 -18.1093 -18.1088 -18.1066 -18.1028
   -18.0980 -18.0969 -18.0937 -18.0930 -18.0868 -18.0856 -18.0826 -18.0299
    -9.4669  -9.3695  -9.2803  -9.2279  -9.1629  -9.1201  -9.0950  -9.0728
    -9.0379  -8.9998  -8.9685  -8.9280  -8.9113  -8.8883  -8.8815  -8.8373
    -8.8179  -8.7572  -8.7305  -8.6486  -8.6349  -8.5051  -8.4483  -8.3756
    -5.3843  -5.3720  -5.3638  -5.2048  -5.1974  -5.1937  -5.1857  -5.1832
    -5.1575  -5.1390  -5.1236  -5.1177  -5.1111  -5.0944  -5.0918  -5.0887
    -5.0679  -5.0655  -4.9586  -4.9524  -4.9462  -4.8639  -4.8402  -4.8212
    -4.3697  -4.0868  -3.8715  -3.7978  -3.5804  -3.5069  -3.2657  -2.9427
    -0.7663  -0.6771  -0.6333  -0.5788  -0.5429  -0.5056  -0.4127  -0.2508
    -0.1969  -0.1455  -0.0266   0.1546   0.3428   0.4190   0.4472   0.4874
     0.5542   0.5781   0.6166   0.6476   0.7266   0.7361   0.7641   0.8586
     0.9300   0.9515   0.9931   1.0306   1.0615   1.0862   1.1500   1.1730
     1.1883   1.2117   1.2367   1.2596   1.2884   1.3294   1.3417   1.3642
     1.3799   1.4003   1.4327   1.4560   1.4808   1.5072   1.5446   1.5639
     1.5907   1.6295   1.6378   1.6747   1.6942   1.7122   1.7450   1.7844
     1.8117   1.8354   1.8652   1.8940   1.9550   1.9901   2.0350   2.0686
     2.1061   2.1674   2.2298   2.3028   2.3934   2.4517   2.7599   2.8616

          k =-0.1250-0.3750-0.1250 (132608 PWs)   bands (ev):

   -18.6184 -18.5554 -18.5485 -18.5422 -18.5374 -18.5294 -18.4221 -18.4113
   -18.3984 -18.3965 -18.3950 -18.3942 -18.3898 -18.3841 -18.3793 -18.3759
   -18.3731 -18.3665 -18.3364 -18.3220 -18.2811 -18.2778 -18.2711 -18.2631
   -18.2586 -18.2565 -18.2523 -18.2475 -18.2467 -18.2387 -18.2374 -18.1805
   -18.1330 -18.1207 -18.1188 -18.1143 -18.1093 -18.1088 -18.1066 -18.1028
   -18.0980 -18.0969 -18.0937 -18.0930 -18.0868 -18.0856 -18.0826 -18.0299
    -9.4670  -9.3693  -9.2804  -9.2286  -9.1631  -9.1123  -9.0973  -9.0793
    -9.0368  -9.0020  -8.9691  -8.9219  -8.9115  -8.8913  -8.8806  -8.8377
    -8.8183  -8.7531  -8.7342  -8.6491  -8.6347  -8.5052  -8.4481  -8.3755
    -5.3843  -5.3720  -5.3638  -5.2047  -5.1975  -5.1936  -5.1857  -5.1833
    -5.1576  -5.1389  -5.1236  -5.1179  -5.1109  -5.0945  -5.0918  -5.0886
    -5.0679  -5.0654  -4.9586  -4.9523  -4.9461  -4.8639  -4.8403  -4.8212
    -4.3700  -4.0874  -3.8651  -3.8039  -3.5705  -3.5181  -3.2645  -2.9420
    -0.7742  -0.6869  -0.6174  -0.5766  -0.5242  -0.5075  -0.4363  -0.2514
    -0.1860  -0.1395  -0.0277   0.1367   0.3366   0.4297   0.4645   0.4839
     0.5447   0.5820   0.6285   0.6484   0.7078   0.7395   0.7644   0.8676
     0.9166   0.9514   0.9898   1.0445   1.0705   1.0845   1.1204   1.1648
     1.1824   1.2083   1.2325   1.2703   1.2951   1.3328   1.3405   1.3692
     1.3943   1.4239   1.4438   1.4483   1.4797   1.5134   1.5333   1.5616
     1.5898   1.6225   1.6340   1.6694   1.6915   1.7138   1.7529   1.7790
     1.7935   1.8262   1.8745   1.9040   1.9429   1.9888   2.0283   2.0646
     2.1233   2.1653   2.2387   2.2976   2.3793   2.4989   2.7587   2.8368

          k = 0.1250 0.3750-0.1250 (132608 PWs)   bands (ev):

   -18.6184 -18.5554 -18.5485 -18.5422 -18.5374 -18.5294 -18.4221 -18.4113
   -18.3984 -18.3965 -18.3950 -18.3942 -18.3898 -18.3841 -18.3793 -18.3759
   -18.3731 -18.3665 -18.3364 -18.3220 -18.2811 -18.2778 -18.2711 -18.2631
   -18.2586 -18.2565 -18.2523 -18.2475 -18.2467 -18.2387 -18.2374 -18.1805
   -18.1330 -18.1207 -18.1188 -18.1143 -18.1093 -18.1088 -18.1066 -18.1028
   -18.0980 -18.0969 -18.0937 -18.0930 -18.0868 -18.0856 -18.0826 -18.0299
    -9.4668  -9.3696  -9.2796  -9.2292  -9.1627  -9.1170  -9.0994  -9.0733
    -9.0338  -8.9996  -8.9692  -8.9288  -8.9118  -8.8880  -8.8827  -8.8364
    -8.8189  -8.7544  -8.7325  -8.6481  -8.6351  -8.5054  -8.4482  -8.3755
    -5.3843  -5.3720  -5.3638  -5.2048  -5.1974  -5.1937  -5.1856  -5.1834
    -5.1576  -5.1388  -5.1236  -5.1180  -5.1108  -5.0944  -5.0918  -5.0887
    -5.0679  -5.0655  -4.9587  -4.9524  -4.9461  -4.8640  -4.8403  -4.8212
    -4.3691  -4.0878  -3.8724  -3.7969  -3.5781  -3.5095  -3.2652  -2.9424
    -0.7584  -0.6835  -0.6317  -0.5857  -0.5365  -0.5060  -0.4230  -0.2495
    -0.1912  -0.1570  -0.0098   0.1415   0.3296   0.4351   0.4586   0.4786
     0.5586   0.5932   0.6200   0.6485   0.7125   0.7334   0.7710   0.8722
     0.9220   0.9583   0.9841   1.0306   1.0534   1.0947   1.1337   1.1707
     1.1860   1.2155   1.2432   1.2634   1.2886   1.3182   1.3433   1.3574
     1.3882   1.4016   1.4402   1.4566   1.4698   1.5098   1.5438   1.5628
     1.5891   1.6339   1.6588   1.6647   1.6830   1.7246   1.7490   1.7777
     1.7947   1.8362   1.8658   1.8988   1.9285   1.9901   2.0213   2.0847
     2.1287   2.1784   2.2304   2.2863   2.3576   2.4922   2.7539   2.8728

          k = 0.1250-0.3750 0.1250 (132608 PWs)   bands (ev):

   -18.6184 -18.5554 -18.5485 -18.5422 -18.5374 -18.5294 -18.4221 -18.4113
   -18.3984 -18.3965 -18.3950 -18.3942 -18.3898 -18.3841 -18.3793 -18.3759
   -18.3731 -18.3665 -18.3364 -18.3220 -18.2811 -18.2778 -18.2711 -18.2631
   -18.2586 -18.2565 -18.2523 -18.2475 -18.2467 -18.2387 -18.2374 -18.1805
   -18.1330 -18.1207 -18.1188 -18.1143 -18.1093 -18.1088 -18.1066 -18.1028
   -18.0980 -18.0969 -18.0937 -18.0930 -18.0868 -18.0856 -18.0826 -18.0299
    -9.4670  -9.3692  -9.2814  -9.2262  -9.1607  -9.1205  -9.0967  -9.0795
    -9.0310  -9.0037  -8.9663  -8.9247  -8.9117  -8.8924  -8.8802  -8.8362
    -8.8189  -8.7564  -8.7305  -8.6495  -8.6348  -8.5051  -8.4482  -8.3755
    -5.3843  -5.3719  -5.3638  -5.2048  -5.1974  -5.1937  -5.1856  -5.1832
    -5.1576  -5.1390  -5.1236  -5.1181  -5.1106  -5.0945  -5.0917  -5.0887
    -5.0679  -5.0654  -4.9586  -4.9524  -4.9461  -4.8640  -4.8403  -4.8212
    -4.3698  -4.0882  -3.8646  -3.8032  -3.5709  -3.5179  -3.2653  -2.9417
    -0.7758  -0.6809  -0.6187  -0.5753  -0.5399  -0.4986  -0.4201  -0.2549
    -0.1952  -0.1604  -0.0154   0.1501   0.3368   0.4192   0.4520   0.4858
     0.5537   0.5921   0.6045   0.6722   0.7117   0.7304   0.7636   0.8676
     0.9098   0.9718   1.0079   1.0449   1.0601   1.0655   1.1255   1.1597
     1.1837   1.2044   1.2445   1.2637   1.2947   1.3185   1.3496   1.3603
     1.3909   1.4125   1.4409   1.4535   1.4814   1.5166   1.5478   1.5714
     1.5988   1.6099   1.6440   1.6689   1.6909   1.7175   1.7506   1.7748
     1.8063   1.8284   1.8615   1.8949   1.9387   2.0084   2.0261   2.0691
     2.1071   2.1533   2.2280   2.3130   2.3867   2.4881   2.7374   2.8714

          k =-0.1250-0.3750 0.3750 (132616 PWs)   bands (ev):

   -18.6184 -18.5554 -18.5485 -18.5422 -18.5374 -18.5294 -18.4221 -18.4113
   -18.3984 -18.3965 -18.3950 -18.3942 -18.3898 -18.3841 -18.3793 -18.3759
   -18.3731 -18.3665 -18.3364 -18.3220 -18.2811 -18.2778 -18.2711 -18.2631
   -18.2586 -18.2565 -18.2523 -18.2475 -18.2467 -18.2387 -18.2374 -18.1805
   -18.1330 -18.1207 -18.1188 -18.1143 -18.1093 -18.1088 -18.1066 -18.1028
   -18.0980 -18.0969 -18.0937 -18.0930 -18.0868 -18.0856 -18.0826 -18.0299
    -9.4587  -9.3596  -9.2669  -9.2552  -9.1720  -9.1319  -9.1251  -9.0752
    -9.0055  -8.9934  -8.9785  -8.9393  -8.8974  -8.8805  -8.8673  -8.8270
    -8.8156  -8.7671  -8.7284  -8.6500  -8.6383  -8.5075  -8.4501  -8.3756
    -5.3842  -5.3719  -5.3637  -5.2047  -5.1974  -5.1936  -5.1855  -5.1833
    -5.1575  -5.1380  -5.1231  -5.1177  -5.1126  -5.0942  -5.0918  -5.0888
    -5.0679  -5.0658  -4.9587  -4.9526  -4.9460  -4.8635  -4.8402  -4.8213
    -4.2477  -3.9985  -3.9510  -3.7439  -3.7009  -3.4515  -3.4368  -3.1399
    -0.6582  -0.5694  -0.5356  -0.4536  -0.3476  -0.2897  -0.1989  -0.1471
    -0.0878   0.0051   0.0542   0.1787   0.2810   0.3667   0.4390   0.4550
     0.4780   0.5258   0.5582   0.6003   0.6229   0.6794   0.7245   0.7548
     0.8121   0.8617   0.9222   0.9667   0.9978   1.0396   1.0924   1.1210
     1.1360   1.1785   1.1959   1.2118   1.2377   1.2762   1.3041   1.3145
     1.3629   1.3861   1.4158   1.4323   1.4798   1.5246   1.5600   1.5865
     1.6351   1.6395   1.6831   1.7065   1.7415   1.7600   1.7917   1.8117
     1.8198   1.8318   1.8610   1.8946   1.9357   1.9515   1.9727   2.0235
     2.0552   2.0812   2.1557   2.2290   2.2925   2.3320   2.5590   2.6766

          k =-0.1250 0.3750-0.3750 (132616 PWs)   bands (ev):

   -18.6184 -18.5554 -18.5485 -18.5422 -18.5374 -18.5294 -18.4221 -18.4113
   -18.3984 -18.3965 -18.3950 -18.3942 -18.3898 -18.3841 -18.3793 -18.3759
   -18.3731 -18.3665 -18.3364 -18.3220 -18.2811 -18.2778 -18.2711 -18.2631
   -18.2586 -18.2565 -18.2523 -18.2475 -18.2467 -18.2387 -18.2374 -18.1805
   -18.1330 -18.1207 -18.1188 -18.1143 -18.1093 -18.1088 -18.1066 -18.1028
   -18.0980 -18.0969 -18.0937 -18.0930 -18.0868 -18.0856 -18.0826 -18.0299
    -9.4590  -9.3591  -9.2714  -9.2502  -9.1699  -9.1322  -9.1273  -9.0760
    -9.0105  -8.9925  -8.9777  -8.9349  -8.8980  -8.8808  -8.8658  -8.8287
    -8.8145  -8.7674  -8.7284  -8.6517  -8.6374  -8.5074  -8.4500  -8.3756
    -5.3842  -5.3719  -5.3637  -5.2048  -5.1973  -5.1937  -5.1855  -5.1832
    -5.1575  -5.1382  -5.1231  -5.1179  -5.1123  -5.0943  -5.0917  -5.0888
    -5.0680  -5.0657  -4.9586  -4.9527  -4.9460  -4.8635  -4.8402  -4.8213
    -4.2493  -3.9953  -3.9516  -3.7421  -3.7007  -3.4556  -3.4379  -3.1380
    -0.6726  -0.5669  -0.5276  -0.4433  -0.3425  -0.2905  -0.1990  -0.1389
    -0.0946   0.0030   0.0505   0.1736   0.2873   0.3598   0.4338   0.4507
     0.4970   0.5091   0.5474   0.6068   0.6403   0.6784   0.7074   0.7471
     0.8093   0.8775   0.9241   0.9714   1.0085   1.0212   1.0957   1.1077
     1.1419   1.1629   1.1945   1.2104   1.2334   1.2788   1.3157   1.3224
     1.3375   1.3944   1.4360   1.4455   1.4922   1.5403   1.5566   1.5873
     1.6196   1.6531   1.6766   1.7119   1.7300   1.7527   1.7735   1.7992
     1.8266   1.8474   1.8770   1.8926   1.9185   1.9603   1.9850   2.0157
     2.0493   2.0825   2.1458   2.2491   2.2733   2.3523   2.5412   2.6778

          k = 0.1250-0.3750-0.3750 (132616 PWs)   bands (ev):

   -18.6184 -18.5554 -18.5485 -18.5422 -18.5374 -18.5294 -18.4221 -18.4113
   -18.3984 -18.3965 -18.3950 -18.3942 -18.3898 -18.3841 -18.3793 -18.3759
   -18.3731 -18.3665 -18.3364 -18.3220 -18.2811 -18.2778 -18.2711 -18.2631
   -18.2586 -18.2565 -18.2523 -18.2475 -18.2467 -18.2387 -18.2374 -18.1805
   -18.1330 -18.1207 -18.1188 -18.1143 -18.1093 -18.1088 -18.1066 -18.1028
   -18.0980 -18.0969 -18.0937 -18.0930 -18.0868 -18.0856 -18.0826 -18.0299
    -9.4588  -9.3597  -9.2655  -9.2568  -9.1717  -9.1347  -9.1213  -9.0743
    -9.0103  -8.9979  -8.9726  -8.9381  -8.8960  -8.8829  -8.8655  -8.8280
    -8.8138  -8.7684  -8.7287  -8.6506  -8.6377  -8.5074  -8.4501  -8.3756
    -5.3842  -5.3719  -5.3637  -5.2048  -5.1973  -5.1937  -5.1856  -5.1832
    -5.1575  -5.1382  -5.1230  -5.1174  -5.1129  -5.0942  -5.0919  -5.0887
    -5.0679  -5.0658  -4.9586  -4.9526  -4.9460  -4.8634  -4.8402  -4.8214
    -4.2490  -3.9880  -3.9599  -3.7464  -3.6986  -3.4483  -3.4402  -3.1402
    -0.6598  -0.5678  -0.5443  -0.4476  -0.3492  -0.2960  -0.1662  -0.1391
    -0.0762  -0.0125   0.0113   0.2014   0.3115   0.3742   0.4182   0.4599
     0.4827   0.5035   0.5345   0.5629   0.6399   0.6838   0.7306   0.7536
     0.8297   0.8697   0.8997   0.9759   1.0252   1.0510   1.0748   1.1022
     1.1205   1.1775   1.1865   1.2221   1.2530   1.2837   1.2971   1.3297
     1.3429   1.3869   1.4249   1.4516   1.4749   1.5220   1.5636   1.5775
     1.6218   1.6609   1.6899   1.7052   1.7235   1.7432   1.7912   1.8101
     1.8329   1.8476   1.8675   1.8954   1.9405   1.9563   1.9840   2.0285
     2.0436   2.0861   2.1446   2.2219   2.2644   2.3459   2.5627   2.6705

          k = 0.3750 0.1250-0.3750 (132616 PWs)   bands (ev):

   -18.6184 -18.5554 -18.5485 -18.5422 -18.5374 -18.5294 -18.4221 -18.4113
   -18.3984 -18.3965 -18.3950 -18.3942 -18.3898 -18.3841 -18.3793 -18.3759
   -18.3731 -18.3665 -18.3364 -18.3220 -18.2811 -18.2778 -18.2711 -18.2631
   -18.2586 -18.2565 -18.2523 -18.2475 -18.2467 -18.2387 -18.2374 -18.1805
   -18.1330 -18.1207 -18.1188 -18.1143 -18.1093 -18.1088 -18.1066 -18.1027
   -18.0980 -18.0969 -18.0937 -18.0930 -18.0868 -18.0856 -18.0826 -18.0299
    -9.4454  -9.3937  -9.2655  -9.2095  -9.1763  -9.1559  -9.1183  -9.0707
    -9.0168  -9.0005  -8.9859  -8.9253  -8.8937  -8.8796  -8.8668  -8.8315
    -8.8174  -8.7644  -8.7264  -8.6559  -8.6322  -8.5080  -8.4538  -8.3729
    -5.3844  -5.3719  -5.3636  -5.2054  -5.1968  -5.1938  -5.1855  -5.1832
    -5.1576  -5.1379  -5.1231  -5.1186  -5.1113  -5.0943  -5.0918  -5.0889
    -5.0680  -5.0656  -4.9588  -4.9523  -4.9461  -4.8643  -4.8399  -4.8218
    -4.2298  -4.0468  -3.9365  -3.7284  -3.6875  -3.5039  -3.3850  -3.1504
    -0.6644  -0.6059  -0.5409  -0.4454  -0.3134  -0.2714  -0.2121  -0.1272
    -0.1110  -0.0124   0.0979   0.1570   0.3132   0.3828   0.4168   0.4701
     0.5015   0.5243   0.5406   0.5702   0.6115   0.6852   0.7002   0.7600
     0.8124   0.8637   0.9156   0.9340   0.9896   1.0109   1.0480   1.0799
     1.1401   1.1647   1.2103   1.2425   1.2649   1.2986   1.3207   1.3448
     1.3697   1.4123   1.4351   1.4630   1.5108   1.5327   1.5696   1.6020
     1.6084   1.6332   1.6685   1.7006   1.7122   1.7349   1.7569   1.7979
     1.8362   1.8623   1.8813   1.9051   1.9473   1.9612   1.9909   2.0441
     2.0668   2.0953   2.1361   2.2111   2.2761   2.3132   2.4954   2.6804

          k =-0.3750-0.1250-0.3750 (132616 PWs)   bands (ev):

   -18.6184 -18.5554 -18.5485 -18.5422 -18.5374 -18.5294 -18.4221 -18.4113
   -18.3984 -18.3965 -18.3950 -18.3942 -18.3898 -18.3841 -18.3793 -18.3759
   -18.3731 -18.3665 -18.3364 -18.3220 -18.2811 -18.2778 -18.2711 -18.2631
   -18.2586 -18.2565 -18.2523 -18.2475 -18.2467 -18.2387 -18.2374 -18.1805
   -18.1330 -18.1207 -18.1188 -18.1143 -18.1093 -18.1088 -18.1066 -18.1027
   -18.0980 -18.0969 -18.0937 -18.0930 -18.0868 -18.0856 -18.0826 -18.0299
    -9.4458  -9.3930  -9.2660  -9.2102  -9.1773  -9.1538  -9.1150  -9.0718
    -9.0188  -9.0065  -8.9843  -8.9195  -8.8923  -8.8851  -8.8646  -8.8321
    -8.8155  -8.7634  -8.7280  -8.6562  -8.6326  -8.5078  -8.4538  -8.3729
    -5.3844  -5.3719  -5.3636  -5.2053  -5.1968  -5.1937  -5.1855  -5.1831
    -5.1577  -5.1380  -5.1230  -5.1186  -5.1116  -5.0944  -5.0918  -5.0887
    -5.0680  -5.0655  -4.9587  -4.9523  -4.9461  -4.8643  -4.8399  -4.8219
    -4.2338  -4.0274  -3.9541  -3.7341  -3.6830  -3.4738  -3.4168  -3.1454
    -0.6743  -0.6152  -0.5287  -0.4325  -0.3580  -0.2363  -0.1707  -0.1472
    -0.0748   0.0150   0.0546   0.1045   0.3022   0.3823   0.4325   0.4673
     0.4911   0.5287   0.5650   0.5808   0.6119   0.6515   0.6754   0.7677
     0.8256   0.8666   0.9154   0.9543   0.9786   1.0143   1.0508   1.0816
     1.1560   1.1735   1.1860   1.2327   1.2652   1.2908   1.3172   1.3532
     1.3938   1.4363   1.4500   1.4611   1.4943   1.5309   1.5444   1.5808
     1.6163   1.6273   1.6777   1.7046   1.7203   1.7433   1.7533   1.7964
     1.8360   1.8441   1.8796   1.9124   1.9272   1.9607   1.9896   2.0539
     2.0692   2.0973   2.1511   2.2165   2.2697   2.3365   2.4898   2.6576

          k = 0.3750-0.1250 0.3750 (132616 PWs)   bands (ev):

   -18.6184 -18.5554 -18.5485 -18.5422 -18.5374 -18.5294 -18.4221 -18.4113
   -18.3984 -18.3965 -18.3950 -18.3942 -18.3898 -18.3841 -18.3793 -18.3759
   -18.3731 -18.3665 -18.3364 -18.3220 -18.2811 -18.2778 -18.2711 -18.2631
   -18.2586 -18.2565 -18.2523 -18.2475 -18.2467 -18.2387 -18.2374 -18.1805
   -18.1330 -18.1207 -18.1188 -18.1143 -18.1093 -18.1088 -18.1066 -18.1027
   -18.0980 -18.0969 -18.0937 -18.0930 -18.0868 -18.0856 -18.0826 -18.0299
    -9.4459  -9.3929  -9.2667  -9.2079  -9.1723  -9.1601  -9.1175  -9.0718
    -9.0171  -9.0003  -8.9894  -8.9201  -8.8951  -8.8835  -8.8621  -8.8324
    -8.8167  -8.7644  -8.7266  -8.6568  -8.6322  -8.5078  -8.4538  -8.3729
    -5.3844  -5.3719  -5.3636  -5.2054  -5.1967  -5.1939  -5.1855  -5.1830
    -5.1577  -5.1381  -5.1231  -5.1188  -5.1111  -5.0944  -5.0917  -5.0888
    -5.0680  -5.0655  -4.9587  -4.9523  -4.9461  -4.8644  -4.8399  -4.8218
    -4.2336  -4.0272  -3.9547  -3.7362  -3.6795  -3.4748  -3.4173  -3.1450
    -0.6613  -0.6092  -0.5501  -0.4457  -0.3438  -0.2468  -0.1629  -0.1472
    -0.0716   0.0212   0.0450   0.1187   0.3089   0.3782   0.4129   0.4594
     0.4897   0.5206   0.5620   0.5832   0.6248   0.6672   0.6812   0.7736
     0.8125   0.8854   0.9146   0.9461   0.9716   1.0060   1.0431   1.0784
     1.1498   1.1703   1.2108   1.2378   1.2475   1.2974   1.3133   1.3432
     1.3805   1.4173   1.4539   1.4827   1.5046   1.5267   1.5647   1.6026
     1.6346   1.6509   1.6619   1.6805   1.6985   1.7443   1.7591   1.8003
     1.8385   1.8521   1.8890   1.9180   1.9353   1.9555   1.9751   2.0343
     2.0644   2.0926   2.1508   2.2102   2.2612   2.3303   2.4976   2.6755

          k =-0.3750 0.1250 0.3750 (132616 PWs)   bands (ev):

   -18.6184 -18.5554 -18.5485 -18.5422 -18.5374 -18.5294 -18.4221 -18.4113
   -18.3984 -18.3965 -18.3950 -18.3942 -18.3898 -18.3841 -18.3793 -18.3759
   -18.3731 -18.3665 -18.3364 -18.3220 -18.2811 -18.2778 -18.2711 -18.2631
   -18.2586 -18.2565 -18.2523 -18.2475 -18.2467 -18.2387 -18.2374 -18.1805
   -18.1330 -18.1207 -18.1188 -18.1143 -18.1093 -18.1088 -18.1066 -18.1027
   -18.0980 -18.0969 -18.0937 -18.0930 -18.0868 -18.0856 -18.0826 -18.0299
    -9.4455  -9.3937  -9.2653  -9.2092  -9.1773  -9.1572  -9.1145  -9.0700
    -9.0209  -9.0062  -8.9794  -8.9253  -8.8921  -8.8814  -8.8662  -8.8322
    -8.8148  -8.7660  -8.7266  -8.6560  -8.6320  -8.5078  -8.4539  -8.3729
    -5.3844  -5.3719  -5.3636  -5.2054  -5.1967  -5.1939  -5.1855  -5.1830
    -5.1576  -5.1381  -5.1230  -5.1184  -5.1116  -5.0944  -5.0918  -5.0888
    -5.0680  -5.0656  -4.9587  -4.9523  -4.9461  -4.8643  -4.8399  -4.8219
    -4.2306  -4.0462  -3.9363  -3.7263  -3.6878  -3.5059  -3.3853  -3.1501
    -0.6723  -0.6156  -0.5208  -0.4403  -0.3154  -0.2601  -0.2177  -0.1351
    -0.1018  -0.0202   0.0780   0.1765   0.3230   0.3723   0.4203   0.4540
     0.5031   0.5310   0.5457   0.5725   0.6120   0.6632   0.7053   0.7610
     0.8383   0.8582   0.8996   0.9377   0.9744   0.9933   1.0511   1.0953
     1.1275   1.1788   1.2043   1.2347   1.2586   1.2912   1.3313   1.3514
     1.3807   1.4278   1.4560   1.4759   1.5048   1.5277   1.5470   1.5970
     1.6134   1.6389   1.6619   1.6789   1.7083   1.7467   1.7698   1.7953
     1.8361   1.8544   1.8893   1.9171   1.9368   1.9631   2.0059   2.0401
     2.0716   2.1068   2.1546   2.1835   2.2833   2.3074   2.4610   2.6916

          k = 0.3750-0.3750 0.1250 (132616 PWs)   bands (ev):

   -18.6184 -18.5554 -18.5485 -18.5422 -18.5374 -18.5294 -18.4221 -18.4113
   -18.3984 -18.3965 -18.3950 -18.3942 -18.3898 -18.3841 -18.3793 -18.3759
   -18.3731 -18.3665 -18.3364 -18.3220 -18.2811 -18.2778 -18.2711 -18.2631
   -18.2586 -18.2565 -18.2523 -18.2475 -18.2467 -18.2387 -18.2374 -18.1805
   -18.1330 -18.1207 -18.1188 -18.1143 -18.1093 -18.1088 -18.1066 -18.1027
   -18.0980 -18.0969 -18.0937 -18.0930 -18.0868 -18.0856 -18.0826 -18.0299
    -9.4458  -9.3975  -9.2588  -9.2131  -9.1974  -9.1388  -9.0939  -9.0750
    -9.0273  -8.9965  -8.9713  -8.9151  -8.9087  -8.8935  -8.8773  -8.8362
    -8.8229  -8.7584  -8.7232  -8.6541  -8.6294  -8.5051  -8.4486  -8.3783
    -5.3843  -5.3720  -5.3637  -5.2048  -5.1972  -5.1937  -5.1853  -5.1835
    -5.1576  -5.1387  -5.1235  -5.1188  -5.1099  -5.0946  -5.0918  -5.0888
    -5.0680  -5.0655  -4.9586  -4.9521  -4.9464  -4.8645  -4.8401  -4.8214
    -4.2497  -4.0435  -3.9507  -3.7386  -3.6797  -3.4500  -3.3913  -3.1310
    -0.7331  -0.6103  -0.5561  -0.5196  -0.3722  -0.2792  -0.1908  -0.1462
    -0.0560  -0.0122   0.0479   0.2406   0.2599   0.3578   0.4313   0.4632
     0.5134   0.5436   0.5837   0.6166   0.6302   0.6973   0.7150   0.7525
     0.8215   0.8614   0.9168   0.9529   1.0078   1.0431   1.0712   1.0961
     1.1516   1.1748   1.2049   1.2349   1.2644   1.3067   1.3492   1.3689
     1.3913   1.4093   1.4349   1.4496   1.4816   1.5088   1.5624   1.5794
     1.6093   1.6399   1.6493   1.6816   1.7003   1.7239   1.7518   1.7750
     1.8035   1.8306   1.8776   1.9202   1.9332   1.9584   1.9826   2.0136
     2.0855   2.1159   2.1701   2.2005   2.3220   2.4263   2.5083   2.6155

          k =-0.3750-0.3750-0.1250 (132616 PWs)   bands (ev):

   -18.6184 -18.5554 -18.5485 -18.5422 -18.5374 -18.5294 -18.4221 -18.4113
   -18.3984 -18.3965 -18.3950 -18.3942 -18.3898 -18.3841 -18.3793 -18.3759
   -18.3731 -18.3665 -18.3364 -18.3220 -18.2811 -18.2778 -18.2711 -18.2631
   -18.2586 -18.2565 -18.2523 -18.2475 -18.2467 -18.2387 -18.2374 -18.1805
   -18.1330 -18.1207 -18.1188 -18.1143 -18.1093 -18.1088 -18.1066 -18.1027
   -18.0980 -18.0969 -18.0937 -18.0930 -18.0868 -18.0856 -18.0826 -18.0299
    -9.4457  -9.3977  -9.2566  -9.2194  -9.1964  -9.1343  -9.0919  -9.0758
    -9.0310  -8.9948  -8.9735  -8.9149  -8.9091  -8.8904  -8.8787  -8.8369
    -8.8222  -8.7567  -8.7255  -8.6536  -8.6294  -8.5052  -8.4485  -8.3783
    -5.3843  -5.3720  -5.3638  -5.2048  -5.1972  -5.1936  -5.1854  -5.1836
    -5.1576  -5.1386  -5.1234  -5.1186  -5.1102  -5.0946  -5.0918  -5.0887
    -5.0679  -5.0656  -4.9586  -4.9521  -4.9464  -4.8645  -4.8401  -4.8214
    -4.2496  -4.0433  -3.9519  -3.7372  -3.6790  -3.4574  -3.3848  -3.1315
    -0.7308  -0.6099  -0.5627  -0.5221  -0.3659  -0.2648  -0.2212  -0.1265
    -0.0766  -0.0004   0.0579   0.2101   0.2809   0.3773   0.4462   0.4629
     0.5112   0.5409   0.5723   0.6114   0.6340   0.6741   0.7205   0.7663
     0.8094   0.8597   0.9126   0.9605   0.9995   1.0306   1.0824   1.1159
     1.1535   1.1728   1.1933   1.2270   1.2749   1.3184   1.3397   1.3714
     1.3944   1.4056   1.4368   1.4591   1.4817   1.4998   1.5508   1.5806
     1.6017   1.6305   1.6582   1.6789   1.7004   1.7119   1.7490   1.7862
     1.8135   1.8283   1.8704   1.8948   1.9350   1.9715   2.0076   2.0258
     2.0875   2.1434   2.1530   2.2183   2.2822   2.4496   2.5226   2.5747

          k = 0.3750 0.3750-0.1250 (132616 PWs)   bands (ev):

   -18.6184 -18.5554 -18.5485 -18.5422 -18.5374 -18.5294 -18.4221 -18.4113
   -18.3984 -18.3965 -18.3950 -18.3942 -18.3898 -18.3841 -18.3793 -18.3759
   -18.3731 -18.3665 -18.3364 -18.3220 -18.2811 -18.2778 -18.2711 -18.2631
   -18.2586 -18.2565 -18.2523 -18.2475 -18.2467 -18.2387 -18.2374 -18.1805
   -18.1330 -18.1207 -18.1188 -18.1143 -18.1093 -18.1088 -18.1066 -18.1027
   -18.0980 -18.0969 -18.0937 -18.0930 -18.0868 -18.0856 -18.0826 -18.0299
    -9.4453  -9.3982  -9.2542  -9.2243  -9.1931  -9.1362  -9.0972  -9.0690
    -9.0293  -8.9912  -8.9759  -8.9195  -8.9094  -8.8883  -8.8796  -8.8363
    -8.8229  -8.7571  -8.7246  -8.6531  -8.6294  -8.5053  -8.4486  -8.3783
    -5.3843  -5.3720  -5.3638  -5.2048  -5.1972  -5.1937  -5.1853  -5.1836
    -5.1576  -5.1385  -5.1235  -5.1187  -5.1100  -5.0945  -5.0918  -5.0888
    -5.0679  -5.0656  -4.9586  -4.9521  -4.9464  -4.8645  -4.8401  -4.8213
    -4.2477  -4.0454  -3.9522  -3.7452  -3.6713  -3.4569  -3.3826  -3.1332
    -0.7272  -0.6088  -0.5537  -0.5220  -0.3865  -0.2622  -0.2230  -0.1506
    -0.0645  -0.0058   0.0690   0.2223   0.2827   0.3715   0.4433   0.4693
     0.5022   0.5525   0.5655   0.6109   0.6490   0.6921   0.7275   0.7643
     0.8058   0.8405   0.8991   0.9593   1.0007   1.0430   1.0879   1.1209
     1.1501   1.1651   1.2097   1.2329   1.2565   1.3153   1.3435   1.3508
     1.3856   1.4174   1.4356   1.4489   1.4874   1.5125   1.5397   1.5785
     1.6091   1.6324   1.6547   1.6841   1.6960   1.7329   1.7437   1.7765
     1.8178   1.8298   1.8787   1.8962   1.9199   1.9735   1.9991   2.0369
     2.0944   2.1234   2.1635   2.1969   2.2591   2.4615   2.5294   2.6008

          k =-0.3750 0.3750 0.1250 (132616 PWs)   bands (ev):

   -18.6184 -18.5554 -18.5485 -18.5422 -18.5374 -18.5294 -18.4221 -18.4113
   -18.3984 -18.3965 -18.3950 -18.3942 -18.3898 -18.3841 -18.3793 -18.3759
   -18.3731 -18.3665 -18.3364 -18.3220 -18.2811 -18.2778 -18.2711 -18.2631
   -18.2586 -18.2565 -18.2523 -18.2475 -18.2467 -18.2387 -18.2374 -18.1805
   -18.1330 -18.1207 -18.1188 -18.1143 -18.1093 -18.1088 -18.1066 -18.1027
   -18.0980 -18.0969 -18.0937 -18.0930 -18.0868 -18.0856 -18.0826 -18.0299
    -9.4454  -9.3980  -9.2562  -9.2183  -9.1975  -9.1371  -9.0941  -9.0693
    -9.0317  -8.9941  -8.9724  -8.9205  -8.9091  -8.8871  -8.8798  -8.8366
    -8.8217  -8.7593  -8.7233  -8.6533  -8.6294  -8.5051  -8.4487  -8.3783
    -5.3843  -5.3720  -5.3638  -5.2048  -5.1972  -5.1937  -5.1854  -5.1835
    -5.1575  -5.1387  -5.1234  -5.1184  -5.1104  -5.0945  -5.0919  -5.0888
    -5.0680  -5.0656  -4.9585  -4.9521  -4.9464  -4.8644  -4.8401  -4.8214
    -4.2487  -4.0455  -3.9501  -3.7435  -3.6748  -3.4507  -3.3885  -3.1327
    -0.7302  -0.6097  -0.5508  -0.5281  -0.3752  -0.2773  -0.2009  -0.1374
    -0.0608  -0.0146   0.0511   0.2384   0.2739   0.3625   0.4278   0.4739
     0.5097   0.5362   0.5859   0.6116   0.6281   0.6918   0.7218   0.7546
     0.8198   0.8665   0.9021   0.9538   0.9984   1.0510   1.0808   1.0873
     1.1529   1.1726   1.2093   1.2424   1.2831   1.3137   1.3505   1.3592
     1.3820   1.4005   1.4300   1.4526   1.4800   1.5264   1.5380   1.5541
     1.6179   1.6418   1.6552   1.6672   1.7025   1.7134   1.7459   1.7931
     1.8074   1.8396   1.8879   1.9169   1.9288   1.9667   1.9861   2.0217
     2.0851   2.1259   2.1680   2.2113   2.3152   2.4132   2.4897   2.6216

          k =-0.3750-0.3750 0.3750 (132612 PWs)   bands (ev):

   -18.6184 -18.5554 -18.5485 -18.5422 -18.5374 -18.5294 -18.4221 -18.4113
   -18.3984 -18.3965 -18.3950 -18.3942 -18.3898 -18.3841 -18.3793 -18.3759
   -18.3731 -18.3665 -18.3364 -18.3220 -18.2811 -18.2778 -18.2711 -18.2631
   -18.2586 -18.2565 -18.2523 -18.2475 -18.2467 -18.2387 -18.2374 -18.1805
   -18.1330 -18.1207 -18.1188 -18.1143 -18.1093 -18.1088 -18.1066 -18.1027
   -18.0980 -18.0969 -18.0937 -18.0930 -18.0868 -18.0856 -18.0826 -18.0299
    -9.4387  -9.3879  -9.2540  -9.2315  -9.1887  -9.1561  -9.1344  -9.0736
    -9.0045  -8.9948  -8.9794  -8.9213  -8.8901  -8.8818  -8.8669  -8.8289
    -8.8198  -8.7659  -8.7253  -8.6554  -8.6319  -8.5069  -8.4498  -8.3785
    -5.3843  -5.3720  -5.3637  -5.2048  -5.1972  -5.1938  -5.1854  -5.1836
    -5.1577  -5.1377  -5.1230  -5.1183  -5.1117  -5.0941  -5.0918  -5.0887
    -5.0679  -5.0658  -4.9586  -4.9523  -4.9461  -4.8640  -4.8399  -4.8215
    -4.1279  -3.9558  -3.8535  -3.8068  -3.6619  -3.6065  -3.5421  -3.3170
    -0.4292  -0.3638  -0.3239  -0.2997  -0.2386  -0.2094  -0.1725  -0.0963
    -0.0073   0.0249   0.1092   0.2244   0.2925   0.3185   0.3728   0.4124
     0.4218   0.4862   0.4966   0.5593   0.5765   0.6210   0.6659   0.7295
     0.8009   0.8418   0.8912   0.9498   0.9801   1.0151   1.0379   1.0571
     1.0895   1.1048   1.1369   1.1651   1.1961   1.2228   1.2577   1.2824
     1.3163   1.3775   1.4172   1.4400   1.4900   1.5421   1.5682   1.6039
     1.6267   1.6504   1.6946   1.7168   1.7474   1.7585   1.7752   1.8019
     1.8281   1.8469   1.8871   1.9137   1.9290   1.9472   1.9608   1.9821
     2.0355   2.0584   2.1252   2.1392   2.1568   2.2388   2.3455   2.3640

          k =-0.3750 0.3750-0.3750 (132612 PWs)   bands (ev):

   -18.6184 -18.5554 -18.5485 -18.5422 -18.5374 -18.5294 -18.4221 -18.4113
   -18.3984 -18.3965 -18.3950 -18.3942 -18.3898 -18.3841 -18.3793 -18.3759
   -18.3731 -18.3665 -18.3364 -18.3220 -18.2811 -18.2778 -18.2711 -18.2631
   -18.2586 -18.2565 -18.2523 -18.2475 -18.2467 -18.2387 -18.2374 -18.1805
   -18.1330 -18.1207 -18.1188 -18.1143 -18.1093 -18.1088 -18.1066 -18.1027
   -18.0980 -18.0969 -18.0937 -18.0930 -18.0868 -18.0856 -18.0826 -18.0299
    -9.4391  -9.3873  -9.2577  -9.2265  -9.1854  -9.1600  -9.1348  -9.0741
    -9.0102  -8.9917  -8.9793  -8.9166  -8.8927  -8.8819  -8.8651  -8.8304
    -8.8189  -8.7661  -8.7253  -8.6565  -8.6317  -8.5067  -8.4498  -8.3785
    -5.3843  -5.3720  -5.3637  -5.2048  -5.1971  -5.1938  -5.1854  -5.1835
    -5.1577  -5.1379  -5.1230  -5.1185  -5.1115  -5.0942  -5.0918  -5.0887
    -5.0679  -5.0657  -4.9585  -4.9523  -4.9461  -4.8640  -4.8399  -4.8215
    -4.1331  -3.9392  -3.8604  -3.8168  -3.6305  -3.6119  -3.5681  -3.3116
    -0.4481  -0.3751  -0.3428  -0.2656  -0.2268  -0.2077  -0.1344  -0.0730
    -0.0114   0.0362   0.0571   0.2254   0.2600   0.3197   0.3501   0.4355
     0.4477   0.4573   0.5069   0.5362   0.5750   0.6387   0.6688   0.7190
     0.8012   0.8537   0.9223   0.9507   0.9742   0.9846   1.0285   1.0519
     1.0683   1.1263   1.1399   1.1755   1.2003   1.2250   1.2458   1.2861
     1.3243   1.3871   1.4008   1.4387   1.5186   1.5523   1.5776   1.6163
     1.6307   1.6625   1.6709   1.7035   1.7384   1.7522   1.7761   1.8086
     1.8297   1.8522   1.8826   1.8969   1.9254   1.9365   1.9737   1.9879
     2.0350   2.0704   2.0935   2.1514   2.1871   2.2170   2.3184   2.3862

          k = 0.3750-0.3750-0.3750 (132612 PWs)   bands (ev):

   -18.6184 -18.5554 -18.5485 -18.5422 -18.5374 -18.5294 -18.4221 -18.4113
   -18.3984 -18.3965 -18.3950 -18.3942 -18.3898 -18.3841 -18.3793 -18.3759
   -18.3731 -18.3665 -18.3364 -18.3220 -18.2811 -18.2778 -18.2711 -18.2631
   -18.2586 -18.2565 -18.2523 -18.2475 -18.2467 -18.2387 -18.2374 -18.1805
   -18.1330 -18.1207 -18.1188 -18.1143 -18.1093 -18.1088 -18.1066 -18.1027
   -18.0980 -18.0969 -18.0937 -18.0930 -18.0868 -18.0856 -18.0826 -18.0299
    -9.4387  -9.3879  -9.2536  -9.2309  -9.1913  -9.1556  -9.1319  -9.0730
    -9.0094  -8.9977  -8.9740  -8.9213  -8.8909  -8.8807  -8.8668  -8.8295
    -8.8176  -8.7675  -8.7256  -8.6555  -8.6317  -8.5067  -8.4499  -8.3785
    -5.3843  -5.3720  -5.3637  -5.2048  -5.1971  -5.1938  -5.1855  -5.1835
    -5.1576  -5.1379  -5.1229  -5.1181  -5.1120  -5.0940  -5.0919  -5.0887
    -5.0679  -5.0658  -4.9585  -4.9523  -4.9461  -4.8639  -4.8399  -4.8216
    -4.1297  -3.9537  -3.8535  -3.8058  -3.6562  -3.6136  -3.5431  -3.3163
    -0.4402  -0.3840  -0.3337  -0.2660  -0.2334  -0.1740  -0.1535  -0.1140
    -0.0211   0.0074   0.1038   0.2356   0.2880   0.3305   0.3713   0.4047
     0.4291   0.4882   0.5038   0.5200   0.5777   0.6151   0.6522   0.7422
     0.8077   0.8448   0.9237   0.9362   0.9725   1.0068   1.0297   1.0425
     1.0721   1.1103   1.1449   1.1757   1.1982   1.2353   1.2499   1.2886
     1.3372   1.3848   1.3957   1.4480   1.4941   1.5445   1.5653   1.5942
     1.6419   1.6501   1.6932   1.7216   1.7456   1.7552   1.7733   1.8065
     1.8168   1.8540   1.8747   1.8918   1.9313   1.9478   1.9873   2.0131
     2.0465   2.0683   2.0896   2.1514   2.1765   2.1928   2.3090   2.3929

     highest occupied level (ev):     3.1279

!    total energy              =   -2256.28430159 Ry
     estimated scf accuracy    <          3.6E-11 Ry

     The total energy is the sum of the following terms:
     one-electron contribution =    -991.81967440 Ry
     hartree contribution      =     623.87964283 Ry
     xc contribution           =    -647.49585301 Ry
     ewald contribution        =   -1240.84841701 Ry

     convergence has been achieved in  16 iterations

     Forces acting on atoms (cartesian axes, Ry/au):

     atom    1 type  1   force =     0.00058100   -0.00103428    0.00622181
     atom    2 type  2   force =     0.00144672    0.00775965    0.00483119
     atom    3 type  3   force =    -0.00772204    0.01376971   -0.02761887
     atom    4 type  3   force =     0.00047698    0.00547273   -0.01645691
     atom    5 type  3   force =    -0.00239695    0.00192696   -0.00136778
     atom    6 type  1   force =    -0.00630214    0.00202010   -0.01378820
     atom    7 type  2   force =     0.01340806    0.00573925    0.00167940
     atom    8 type  3   force =    -0.00511286    0.00594306    0.00582833
     atom    9 type  3   force =     0.00775538    0.00010184    0.01263482
     atom   10 type  3   force =    -0.00365586   -0.00350556    0.00292376
     atom   11 type  1   force =     0.00030071   -0.01258649    0.01663707
     atom   12 type  2   force =    -0.00242575   -0.00390433    0.00076467
     atom   13 type  3   force =    -0.02406595    0.00041334   -0.00375549
     atom   14 type  3   force =     0.00420863    0.00171162   -0.01139611
     atom   15 type  3   force =     0.00115199   -0.00113957    0.00423324
     atom   16 type  1   force =     0.00364361   -0.00148553   -0.00281746
     atom   17 type  2   force =     0.01149539   -0.00740849   -0.00305166
     atom   18 type  3   force =    -0.00894619    0.00294103    0.00128602
     atom   19 type  3   force =     0.00210278   -0.01340612   -0.00316312
     atom   20 type  3   force =     0.00151496   -0.00644412    0.00420525
     atom   21 type  1   force =    -0.00132581   -0.00068250    0.00250132
     atom   22 type  2   force =    -0.00806693    0.01469503    0.01013540
     atom   23 type  3   force =    -0.00763019    0.00569988    0.00335768
     atom   24 type  3   force =     0.01225929   -0.00025222    0.00008157
     atom   25 type  3   force =     0.00922788    0.01275401    0.00355773
     atom   26 type  1   force =     0.00130406   -0.00333612   -0.00229775
     atom   27 type  2   force =    -0.00984410    0.01280697   -0.01843433
     atom   28 type  3   force =    -0.00812073    0.00074376   -0.00102213
     atom   29 type  3   force =    -0.00375165    0.00010773    0.01386321
     atom   30 type  3   force =    -0.00018775   -0.00057299    0.00203169
     atom   31 type  1   force =     0.01434897   -0.00124357    0.02003954
     atom   32 type  2   force =     0.00488698   -0.00785012    0.00897588
     atom   33 type  3   force =     0.01731623   -0.00121560   -0.00429240
     atom   34 type  3   force =     0.00835528    0.00512901   -0.00666407
     atom   35 type  3   force =    -0.00988719   -0.02187973   -0.01806826
     atom   36 type  1   force =    -0.00777428    0.00818522   -0.00048577
     atom   37 type  2   force =    -0.01471188   -0.01231108   -0.00713112
     atom   38 type  3   force =     0.00535846    0.00171812    0.00404650
     atom   39 type  3   force =     0.00191825   -0.00455586    0.01313125
     atom   40 type  3   force =     0.00886666   -0.00482473   -0.00115590

     Total force =     0.094189     Total SCF correction =     0.000023


     Computing stress (Cartesian axis) and pressure

          total   stress  (Ry/bohr**3)                   (kbar)     P=       -7.58
  -0.00005443  -0.00000738   0.00001306           -8.01       -1.09        1.92
  -0.00000738  -0.00005828  -0.00000304           -1.09       -8.57       -0.45
   0.00001306  -0.00000304  -0.00004180            1.92       -0.45       -6.15

 
     init_run     :     19.72s CPU     18.47s WALL (       1 calls)
     electrons    :    212.48s CPU    225.76s WALL (       1 calls)
     forces       :      8.86s CPU      3.94s WALL (       1 calls)
     stress       :     30.11s CPU     30.79s WALL (       1 calls)

     Called by init_run:
     wfcinit      :     11.86s CPU     15.41s WALL (       1 calls)
                                       15.41s GPU  (       1 calls)
     potinit      :      4.62s CPU      1.42s WALL (       1 calls)
     hinit0       :      2.68s CPU      0.97s WALL (       1 calls)

     Called by electrons:
     c_bands      :    126.00s CPU    180.17s WALL (      17 calls)
     sum_band     :     23.14s CPU     22.41s WALL (      17 calls)
                                       22.41s GPU  (      17 calls)
     v_of_rho     :     58.29s CPU     17.75s WALL (      17 calls)
     mix_rho      :      7.13s CPU      5.65s WALL (      17 calls)

     Called by c_bands:
     init_us_2    :      2.74s CPU      3.44s WALL (     296 calls)
                                        3.43s GPU  (     296 calls)
     cegterg      :     83.12s CPU    134.50s WALL (     136 calls)

     Called by *egterg:
     cdiaghg      :     14.66s CPU     27.36s WALL (     691 calls)
                                       27.32s GPU  (     691 calls)
     h_psi        :     55.73s CPU     78.85s WALL (     707 calls)
                                       78.39s GPU  (     707 calls)
     g_psi        :      0.00s CPU      0.38s WALL (     563 calls)
                                        0.37s GPU  (     563 calls)

     Called by h_psi:
     h_psi:calbec :      0.30s CPU     11.25s WALL (     707 calls)
                                       11.24s GPU  (     707 calls)
     vloc_psi     :     40.96s CPU     57.17s WALL (     707 calls)
                                       56.21s GPU  (     707 calls)
     add_vuspsi   :      0.36s CPU     10.35s WALL (     707 calls)
                                       10.34s GPU  (     707 calls)

     General routines
     calbec       :      0.30s CPU      1.21s WALL (     747 calls)
     fft          :     27.01s CPU      6.90s WALL (     195 calls)
                                        0.01s GPU  (       6 calls)
     ffts         :      2.77s CPU      0.72s WALL (      17 calls)
     fftw         :      0.64s CPU     66.27s WALL (   11056 calls)
                                       49.50s GPU  (   11056 calls)
 
     Parallel routines
 
     PWSCF        :   4m31.82s CPU   4m39.84s WALL

 
   This run was terminated on:  20:16:58  22Apr2021            

=------------------------------------------------------------------------------=
   JOB DONE.
=------------------------------------------------------------------------------=
