
     Program PWSCF v.6.7MaX starts on 22Apr2021 at 20:40:46 

     This program is part of the open-source Quantum ESPRESSO suite
     for quantum simulation of materials; please cite
         "P. Giannozzi et al., J. Phys.:Condens. Matter 21 395502 (2009);
         "P. Giannozzi et al., J. Phys.:Condens. Matter 29 465901 (2017);
         "P. Giannozzi et al., J. Chem. Phys. 152 154105 (2020);
          URL http://www.quantum-espresso.org", 
     in publications or presentations arising from this work. More details at
     http://www.quantum-espresso.org/quote

     Parallel version (MPI & OpenMP), running on      16 processor cores
     Number of MPI processes:                 4
     Threads/MPI process:                     4

     MPI processes distributed on     1 nodes
     K-points division:     npool     =       4
     Reading input from ESP_61.pwi
Warning: card &CELL ignored
Warning: card / ignored

     Current dimensions of program PWSCF are:
     Max number of different atomic species (ntypx) = 10
     Max number of k-points (npk) =  40000
     Max angular momentum in pseudopotentials (lmaxx) =  3
     Message from routine read_pp_mesh:
     mesh size missing, using the one in header
     Message from routine read_pp_mesh:
     mesh size missing, using the one in header
     Message from routine read_pp_mesh:
     mesh size missing, using the one in header

     Subspace diagonalization in iterative solution of the eigenvalue problem:
     a serial algorithm will be used

 
     G-vector sticks info
     --------------------
     sticks:   dense  smooth     PW     G-vecs:    dense   smooth      PW
     Sum       12589   12589   3289              1061107  1061107  140905
 
     Using Slab Decomposition
 


     bravais-lattice index     =            0
     lattice parameter (alat)  =      23.7585  a.u.
     unit-cell volume          =   13410.8736 (a.u.)^3
     number of atoms/cell      =           40
     number of atomic types    =            3
     number of electrons       =       352.00
     number of Kohn-Sham states=          176
     kinetic-energy cutoff     =      70.0000  Ry
     charge density cutoff     =     280.0000  Ry
     scf convergence threshold =      1.0E-10
     mixing beta               =       0.7000
     number of iterations used =            8  plain     mixing
     Exchange-correlation= PBESOL
                           (   1   4  10   8   0   0   0)

     GPU acceleration is ACTIVE.


     celldm(1)=  23.758500  celldm(2)=   0.000000  celldm(3)=   0.000000
     celldm(4)=   0.000000  celldm(5)=   0.000000  celldm(6)=   0.000000

     crystal axes: (cart. coord. in units of alat)
               a(1) = (   1.000000   0.000000   0.000000 )  
               a(2) = (   0.000000   1.000000   0.000000 )  
               a(3) = (   0.000000   0.000000   1.000000 )  

     reciprocal axes: (cart. coord. in units 2 pi/alat)
               b(1) = (  1.000000  0.000000  0.000000 )  
               b(2) = (  0.000000  1.000000  0.000000 )  
               b(3) = (  0.000000  0.000000  1.000000 )  


     PseudoPot. # 1 for Cs read from file:
     /m100/home/userexternal/lmonacel/espresso/pseudo/Cs-nc-pbesol.upf
     MD5 check sum: 9d2f2206a14dc5b3b3f3fbfae186bed4
     Pseudo is Norm-conserving + core correction, Zval =  9.0
     Generated using ONCVPSP code by D. R. Hamann
     Using radial grid of 2384 points,  8 beta functions with: 
                l(1) =   0
                l(2) =   0
                l(3) =   1
                l(4) =   1
                l(5) =   2
                l(6) =   2
                l(7) =   3
                l(8) =   3

     PseudoPot. # 2 for Sn read from file:
     /m100/home/userexternal/lmonacel/espresso/pseudo/Sn-nc-pbesol.upf
     MD5 check sum: c2995d571af40102bfea7461443d92cf
     Pseudo is Norm-conserving + core correction, Zval = 14.0
     Generated using ONCVPSP code by D. R. Hamann
     Using radial grid of 1628 points,  6 beta functions with: 
                l(1) =   0
                l(2) =   0
                l(3) =   1
                l(4) =   1
                l(5) =   2
                l(6) =   2

     PseudoPot. # 3 for I  read from file:
     /m100/home/userexternal/lmonacel/espresso/pseudo/I-nc-pbesol.upf
     MD5 check sum: 80ed5ceb2eb9c553cfb6760a299d9c5b
     Pseudo is Norm-conserving + core correction, Zval =  7.0
     Generated using ONCVPSP code by D. R. Hamann
     Using radial grid of 1182 points,  6 beta functions with: 
                l(1) =   0
                l(2) =   0
                l(3) =   1
                l(4) =   1
                l(5) =   2
                l(6) =   2

     atomic species   valence    mass     pseudopotential
        Cs             9.00   132.90545     Cs( 1.00)
        Sn            14.00   118.71000     Sn( 1.00)
        I              7.00   126.90447     I ( 1.00)

     No symmetry found



   Cartesian axes

     site n.     atom                  positions (alat units)
         1           Cs  tau(   1) = (   0.2829109   0.2324540   0.2810071  )
         2           Sn  tau(   2) = (   0.0022826  -0.0029883  -0.0113318  )
         3           I   tau(   3) = (   0.2681679  -0.0284396  -0.0549077  )
         4           I   tau(   4) = (   0.0470093   0.0294847   0.2375970  )
         5           I   tau(   5) = (   0.0195470   0.2409389  -0.0007305  )
         6           Cs  tau(   6) = (   0.3026021   0.2261149   0.7552191  )
         7           Sn  tau(   7) = (  -0.0100963   0.0096662   0.4911697  )
         8           I   tau(   8) = (   0.2456377   0.0572424   0.5131848  )
         9           I   tau(   9) = (  -0.0314941  -0.0237649   0.7466987  )
        10           I   tau(  10) = (  -0.0221755   0.2492102   0.4962463  )
        11           Cs  tau(  11) = (   0.2739516   0.7413889   0.2365234  )
        12           Sn  tau(  12) = (   0.0015140   0.4932632   0.0048067  )
        13           I   tau(  13) = (   0.2463191   0.4735957  -0.0236503  )
        14           I   tau(  14) = (   0.0482965   0.4840476   0.2406414  )
        15           I   tau(  15) = (  -0.0098598   0.7489645   0.0182252  )
        16           Cs  tau(  16) = (   0.2386678   0.7517386   0.7422661  )
        17           Sn  tau(  17) = (  -0.0003779   0.5078423   0.5064043  )
        18           I   tau(  18) = (   0.2405805   0.4863938   0.5246670  )
        19           I   tau(  19) = (  -0.0120301   0.5202962   0.7368901  )
        20           I   tau(  20) = (  -0.0114904   0.7474130   0.5034655  )
        21           Cs  tau(  21) = (   0.7546069   0.2623897   0.2611746  )
        22           Sn  tau(  22) = (   0.4949263  -0.0159112   0.0023832  )
        23           I   tau(  23) = (   0.7629230  -0.0150057   0.0513004  )
        24           I   tau(  24) = (   0.4695293   0.0040657   0.2503984  )
        25           I   tau(  25) = (   0.5222603   0.2323713   0.0133823  )
        26           Cs  tau(  26) = (   0.7915264   0.2607234   0.7165184  )
        27           Sn  tau(  27) = (   0.4885248  -0.0102357   0.5067005  )
        28           I   tau(  28) = (   0.7484594   0.0131156   0.4269258  )
        29           I   tau(  29) = (   0.5141113   0.0442850   0.7512362  )
        30           I   tau(  30) = (   0.5126001   0.2472971   0.5042861  )
        31           Cs  tau(  31) = (   0.7075307   0.7840083   0.2539326  )
        32           Sn  tau(  32) = (   0.4917641   0.4787636  -0.0035579  )
        33           I   tau(  33) = (   0.7471270   0.4947129   0.0473108  )
        34           I   tau(  34) = (   0.4422051   0.4977059   0.2586726  )
        35           I   tau(  35) = (   0.4988092   0.7403298  -0.0087667  )
        36           Cs  tau(  36) = (   0.7426397   0.7720045   0.7888996  )
        37           Sn  tau(  37) = (   0.4840547   0.5066013   0.4903201  )
        38           I   tau(  38) = (   0.7438759   0.5011092   0.4766329  )
        39           I   tau(  39) = (   0.5000723   0.4950864   0.7570222  )
        40           I   tau(  40) = (   0.4549637   0.7581324   0.5083090  )

     number of k points=    32
                       cart. coord. in units 2pi/alat
        k(    1) = (   0.1250000   0.1250000   0.1250000), wk =   0.0625000
        k(    2) = (   0.1250000   0.1250000   0.3750000), wk =   0.0625000
        k(    3) = (   0.1250000   0.3750000   0.3750000), wk =   0.0625000
        k(    4) = (   0.3750000   0.3750000   0.3750000), wk =   0.0625000
        k(    5) = (  -0.1250000  -0.1250000   0.1250000), wk =   0.0625000
        k(    6) = (  -0.1250000   0.1250000  -0.1250000), wk =   0.0625000
        k(    7) = (   0.1250000  -0.1250000  -0.1250000), wk =   0.0625000
        k(    8) = (  -0.1250000  -0.1250000   0.3750000), wk =   0.0625000
        k(    9) = (  -0.1250000   0.1250000  -0.3750000), wk =   0.0625000
        k(   10) = (   0.1250000  -0.1250000  -0.3750000), wk =   0.0625000
        k(   11) = (   0.3750000  -0.1250000   0.1250000), wk =   0.0625000
        k(   12) = (  -0.3750000  -0.1250000  -0.1250000), wk =   0.0625000
        k(   13) = (   0.3750000   0.1250000  -0.1250000), wk =   0.0625000
        k(   14) = (  -0.3750000   0.1250000   0.1250000), wk =   0.0625000
        k(   15) = (  -0.1250000   0.3750000   0.1250000), wk =   0.0625000
        k(   16) = (  -0.1250000  -0.3750000  -0.1250000), wk =   0.0625000
        k(   17) = (   0.1250000   0.3750000  -0.1250000), wk =   0.0625000
        k(   18) = (   0.1250000  -0.3750000   0.1250000), wk =   0.0625000
        k(   19) = (  -0.1250000  -0.3750000   0.3750000), wk =   0.0625000
        k(   20) = (  -0.1250000   0.3750000  -0.3750000), wk =   0.0625000
        k(   21) = (   0.1250000  -0.3750000  -0.3750000), wk =   0.0625000
        k(   22) = (   0.3750000   0.1250000  -0.3750000), wk =   0.0625000
        k(   23) = (  -0.3750000  -0.1250000  -0.3750000), wk =   0.0625000
        k(   24) = (   0.3750000  -0.1250000   0.3750000), wk =   0.0625000
        k(   25) = (  -0.3750000   0.1250000   0.3750000), wk =   0.0625000
        k(   26) = (   0.3750000  -0.3750000   0.1250000), wk =   0.0625000
        k(   27) = (  -0.3750000  -0.3750000  -0.1250000), wk =   0.0625000
        k(   28) = (   0.3750000   0.3750000  -0.1250000), wk =   0.0625000
        k(   29) = (  -0.3750000   0.3750000   0.1250000), wk =   0.0625000
        k(   30) = (  -0.3750000  -0.3750000   0.3750000), wk =   0.0625000
        k(   31) = (  -0.3750000   0.3750000  -0.3750000), wk =   0.0625000
        k(   32) = (   0.3750000  -0.3750000  -0.3750000), wk =   0.0625000

     Dense  grid:  1061107 G-vectors     FFT dimensions: ( 128, 128, 128)

     Estimated max dynamical RAM per process >       6.82 GB

     Estimated total dynamical RAM >      27.27 GB

     Initial potential from superposition of free atoms

     starting charge  351.69472, renormalised to  352.00000
     Starting wfcs are  208 randomized atomic wfcs

     total cpu time spent up to now is       17.8 secs

     Self-consistent Calculation

     iteration #  1     ecut=    70.00 Ry     beta= 0.70
     Davidson diagonalization with overlap
     ethr =  1.00E-02,  avg # of iterations =  2.0

     Threshold (ethr) on eigenvalues was too large:
     Diagonalizing with lowered threshold

     Davidson diagonalization with overlap
     ethr =  2.29E-04,  avg # of iterations =  4.0

     total cpu time spent up to now is       38.9 secs

     total energy              =   -2256.00012982 Ry
     estimated scf accuracy    <       0.71071719 Ry

     iteration #  2     ecut=    70.00 Ry     beta= 0.70
     Davidson diagonalization with overlap
     ethr =  2.02E-04,  avg # of iterations =  3.3

     total cpu time spent up to now is       51.9 secs

     total energy              =   -2256.20186957 Ry
     estimated scf accuracy    <       0.40248355 Ry

     iteration #  3     ecut=    70.00 Ry     beta= 0.70
     Davidson diagonalization with overlap
     ethr =  1.14E-04,  avg # of iterations =  2.9

     total cpu time spent up to now is       63.6 secs

     total energy              =   -2256.28200565 Ry
     estimated scf accuracy    <       0.04798875 Ry

     iteration #  4     ecut=    70.00 Ry     beta= 0.70
     Davidson diagonalization with overlap
     ethr =  1.36E-05,  avg # of iterations =  3.4

     total cpu time spent up to now is       76.1 secs

     total energy              =   -2256.29564000 Ry
     estimated scf accuracy    <       0.00329323 Ry

     iteration #  5     ecut=    70.00 Ry     beta= 0.70
     Davidson diagonalization with overlap
     ethr =  9.36E-07,  avg # of iterations =  4.4

     total cpu time spent up to now is       89.6 secs

     total energy              =   -2256.29641728 Ry
     estimated scf accuracy    <       0.00140754 Ry

     iteration #  6     ecut=    70.00 Ry     beta= 0.70
     Davidson diagonalization with overlap
     ethr =  4.00E-07,  avg # of iterations =  3.2

     total cpu time spent up to now is      102.0 secs

     total energy              =   -2256.29662183 Ry
     estimated scf accuracy    <       0.00020184 Ry

     iteration #  7     ecut=    70.00 Ry     beta= 0.70
     Davidson diagonalization with overlap
     ethr =  5.73E-08,  avg # of iterations =  4.3

     total cpu time spent up to now is      115.7 secs

     total energy              =   -2256.29668948 Ry
     estimated scf accuracy    <       0.00003132 Ry

     iteration #  8     ecut=    70.00 Ry     beta= 0.70
     Davidson diagonalization with overlap
     ethr =  8.90E-09,  avg # of iterations =  4.0

     total cpu time spent up to now is      129.0 secs

     total energy              =   -2256.29669748 Ry
     estimated scf accuracy    <       0.00000755 Ry

     iteration #  9     ecut=    70.00 Ry     beta= 0.70
     Davidson diagonalization with overlap
     ethr =  2.15E-09,  avg # of iterations =  4.0

     total cpu time spent up to now is      142.4 secs

     total energy              =   -2256.29669975 Ry
     estimated scf accuracy    <       0.00000117 Ry

     iteration # 10     ecut=    70.00 Ry     beta= 0.70
     Davidson diagonalization with overlap
     ethr =  3.31E-10,  avg # of iterations =  3.8

     total cpu time spent up to now is      156.5 secs

     total energy              =   -2256.29670012 Ry
     estimated scf accuracy    <       0.00000031 Ry

     iteration # 11     ecut=    70.00 Ry     beta= 0.70
     Davidson diagonalization with overlap
     ethr =  8.77E-11,  avg # of iterations =  4.6

     total cpu time spent up to now is      170.4 secs

     total energy              =   -2256.29670019 Ry
     estimated scf accuracy    <       0.00000006 Ry

     iteration # 12     ecut=    70.00 Ry     beta= 0.70
     Davidson diagonalization with overlap
     ethr =  1.76E-11,  avg # of iterations =  5.7

     total cpu time spent up to now is      186.3 secs

     total energy              =   -2256.29670024 Ry
     estimated scf accuracy    <       0.00000002 Ry

     iteration # 13     ecut=    70.00 Ry     beta= 0.70
     Davidson diagonalization with overlap
     ethr =  5.07E-12,  avg # of iterations =  3.8

     total cpu time spent up to now is      199.9 secs

     total energy              =   -2256.29670024 Ry
     estimated scf accuracy    <          2.6E-09 Ry

     iteration # 14     ecut=    70.00 Ry     beta= 0.70
     Davidson diagonalization with overlap
     ethr =  7.52E-13,  avg # of iterations =  5.4

     total cpu time spent up to now is      216.4 secs

     total energy              =   -2256.29670024 Ry
     estimated scf accuracy    <          2.8E-10 Ry

     iteration # 15     ecut=    70.00 Ry     beta= 0.70
     Davidson diagonalization with overlap
     ethr =  1.00E-13,  avg # of iterations =  5.2

     total cpu time spent up to now is      232.6 secs

     total energy              =   -2256.29670024 Ry
     estimated scf accuracy    <          1.4E-10 Ry

     iteration # 16     ecut=    70.00 Ry     beta= 0.70
     Davidson diagonalization with overlap
     ethr =  1.00E-13,  avg # of iterations =  2.0

     total cpu time spent up to now is      243.8 secs

     End of self-consistent calculation

          k = 0.1250 0.1250 0.1250 (132670 PWs)   bands (ev):

   -18.5672 -18.4919 -18.4876 -18.4852 -18.4754 -18.4714 -18.4681 -18.4431
   -18.4065 -18.3971 -18.3839 -18.3781 -18.3721 -18.3586 -18.3457 -18.3346
   -18.3313 -18.3312 -18.3267 -18.3226 -18.3223 -18.3150 -18.3120 -18.3105
   -18.2991 -18.2896 -18.2893 -18.2831 -18.2799 -18.2719 -18.2001 -18.1897
   -18.1809 -18.1777 -18.1664 -18.1539 -18.1481 -18.1404 -18.1389 -18.1343
   -18.1295 -18.1267 -18.1188 -18.1155 -18.1067 -18.1028 -18.0948 -18.0276
    -9.5978  -9.3829  -9.2998  -9.2490  -9.1565  -9.1283  -9.1101  -9.0733
    -9.0300  -8.9933  -8.9668  -8.9395  -8.9067  -8.8703  -8.8491  -8.8018
    -8.7462  -8.7053  -8.6917  -8.6703  -8.5864  -8.5618  -8.5113  -8.4685
    -5.3393  -5.3298  -5.3244  -5.2543  -5.2393  -5.2342  -5.2277  -5.2229
    -5.2038  -5.1931  -5.1859  -5.1647  -5.0953  -5.0863  -5.0782  -4.9529
    -4.9315  -4.9141  -4.8886  -4.8781  -4.8716  -4.8471  -4.8437  -4.8263
    -4.4464  -3.9660  -3.9590  -3.8652  -3.4570  -3.3682  -3.3300  -2.7781
    -0.8154  -0.7193  -0.6570  -0.6094  -0.5678  -0.5131  -0.4590  -0.4178
    -0.3645  -0.3060  -0.2623  -0.1194   0.3254   0.4224   0.5001   0.5735
     0.6375   0.6683   0.6808   0.7387   0.7935   0.8273   0.8998   0.9308
     0.9614   0.9955   1.0226   1.0529   1.0871   1.1256   1.1354   1.1705
     1.1820   1.2288   1.2383   1.2513   1.2803   1.2919   1.3318   1.3560
     1.3910   1.4072   1.4503   1.4637   1.4902   1.5033   1.5237   1.5701
     1.5984   1.6246   1.6476   1.6633   1.6917   1.7078   1.7408   1.7570
     1.7845   1.8121   1.8513   1.8943   1.9324   1.9839   2.0612   2.0894
     2.1637   2.1867   2.2462   2.3042   2.5366   2.6422   2.7037   3.0686

          k = 0.1250 0.1250 0.3750 (132608 PWs)   bands (ev):

   -18.5672 -18.4919 -18.4875 -18.4852 -18.4754 -18.4714 -18.4681 -18.4431
   -18.4065 -18.3971 -18.3839 -18.3781 -18.3721 -18.3586 -18.3457 -18.3346
   -18.3313 -18.3312 -18.3267 -18.3226 -18.3223 -18.3150 -18.3120 -18.3105
   -18.2991 -18.2896 -18.2893 -18.2831 -18.2799 -18.2719 -18.2001 -18.1897
   -18.1809 -18.1777 -18.1664 -18.1539 -18.1481 -18.1404 -18.1389 -18.1343
   -18.1295 -18.1267 -18.1188 -18.1155 -18.1067 -18.1028 -18.0948 -18.0276
    -9.5942  -9.3801  -9.2939  -9.2506  -9.1873  -9.1311  -9.0978  -9.0814
    -9.0326  -8.9851  -8.9659  -8.9413  -8.8962  -8.8652  -8.8522  -8.8008
    -8.7421  -8.7039  -8.6939  -8.6668  -8.5861  -8.5609  -8.5155  -8.4721
    -5.3392  -5.3298  -5.3243  -5.2545  -5.2393  -5.2329  -5.2279  -5.2235
    -5.2038  -5.1930  -5.1859  -5.1647  -5.0954  -5.0862  -5.0785  -4.9532
    -4.9314  -4.9139  -4.8885  -4.8783  -4.8718  -4.8474  -4.8438  -4.8264
    -4.3296  -4.1105  -3.8525  -3.7472  -3.6122  -3.5306  -3.2230  -2.9736
    -0.8177  -0.7100  -0.5762  -0.5313  -0.4857  -0.4351  -0.4116  -0.2720
    -0.1567  -0.0812   0.0023   0.1474   0.2798   0.4171   0.4712   0.4899
     0.5222   0.5619   0.6081   0.6678   0.6830   0.7336   0.7728   0.8030
     0.8582   0.9135   0.9360   0.9653   1.0356   1.0752   1.1052   1.1227
     1.1697   1.2020   1.2232   1.2364   1.2565   1.2993   1.3277   1.3613
     1.3981   1.4226   1.4307   1.4783   1.5154   1.5337   1.5567   1.5761
     1.6107   1.6280   1.6542   1.6700   1.7055   1.7232   1.7400   1.7743
     1.8048   1.8364   1.8616   1.8770   1.8969   1.9546   1.9857   2.0780
     2.1163   2.1564   2.2204   2.3016   2.3521   2.4569   2.7107   2.8362

          k = 0.1250 0.3750 0.3750 (132616 PWs)   bands (ev):

   -18.5672 -18.4919 -18.4875 -18.4852 -18.4754 -18.4714 -18.4681 -18.4431
   -18.4065 -18.3971 -18.3839 -18.3781 -18.3721 -18.3586 -18.3457 -18.3346
   -18.3313 -18.3312 -18.3267 -18.3226 -18.3223 -18.3150 -18.3120 -18.3105
   -18.2991 -18.2896 -18.2893 -18.2831 -18.2799 -18.2719 -18.2001 -18.1897
   -18.1809 -18.1777 -18.1664 -18.1539 -18.1481 -18.1404 -18.1389 -18.1343
   -18.1295 -18.1267 -18.1188 -18.1155 -18.1067 -18.1028 -18.0948 -18.0276
    -9.5909  -9.3725  -9.3082  -9.2367  -9.1924  -9.1501  -9.1103  -9.0837
    -9.0057  -8.9858  -8.9681  -8.9426  -8.8858  -8.8663  -8.8488  -8.8173
    -8.7422  -8.7070  -8.6892  -8.6505  -8.5890  -8.5581  -8.5140  -8.4814
    -5.3392  -5.3298  -5.3244  -5.2544  -5.2389  -5.2330  -5.2280  -5.2237
    -5.2037  -5.1932  -5.1858  -5.1649  -5.0954  -5.0858  -5.0777  -4.9530
    -4.9312  -4.9141  -4.8887  -4.8789  -4.8719  -4.8474  -4.8432  -4.8266
    -4.1997  -4.0024  -3.9419  -3.7499  -3.6785  -3.4803  -3.4027  -3.1806
    -0.5859  -0.5528  -0.4819  -0.4549  -0.4112  -0.2799  -0.2264  -0.1408
    -0.0203   0.0498   0.0705   0.2008   0.2812   0.3495   0.4025   0.4610
     0.4951   0.5479   0.5940   0.6224   0.6565   0.6751   0.7234   0.7517
     0.7820   0.8268   0.8584   0.8995   0.9533   0.9847   1.0219   1.0540
     1.0963   1.1092   1.1591   1.2121   1.2304   1.2725   1.3244   1.3549
     1.4001   1.4157   1.4308   1.4734   1.4970   1.5209   1.5613   1.5775
     1.6005   1.6205   1.6691   1.6944   1.7099   1.7317   1.7634   1.7986
     1.8170   1.8381   1.8572   1.8823   1.9113   1.9409   1.9708   2.0247
     2.0757   2.1080   2.1491   2.1911   2.2241   2.3409   2.4524   2.5685

          k = 0.3750 0.3750 0.3750 (132612 PWs)   bands (ev):

   -18.5672 -18.4919 -18.4875 -18.4852 -18.4754 -18.4714 -18.4681 -18.4431
   -18.4065 -18.3971 -18.3839 -18.3781 -18.3721 -18.3586 -18.3457 -18.3346
   -18.3313 -18.3312 -18.3267 -18.3226 -18.3223 -18.3150 -18.3120 -18.3105
   -18.2991 -18.2896 -18.2893 -18.2831 -18.2799 -18.2719 -18.2001 -18.1897
   -18.1809 -18.1777 -18.1664 -18.1539 -18.1481 -18.1404 -18.1389 -18.1343
   -18.1295 -18.1267 -18.1188 -18.1155 -18.1067 -18.1028 -18.0948 -18.0276
    -9.5902  -9.3676  -9.2986  -9.2337  -9.1921  -9.1729  -9.1111  -9.1050
    -8.9975  -8.9853  -8.9616  -8.9396  -8.8881  -8.8763  -8.8361  -8.8100
    -8.7430  -8.7000  -8.6860  -8.6518  -8.5926  -8.5587  -8.5171  -8.4820
    -5.3392  -5.3298  -5.3242  -5.2546  -5.2391  -5.2331  -5.2278  -5.2236
    -5.2038  -5.1931  -5.1856  -5.1648  -5.0953  -5.0857  -5.0778  -4.9530
    -4.9313  -4.9144  -4.8889  -4.8790  -4.8716  -4.8474  -4.8435  -4.8263
    -4.1197  -3.9258  -3.8753  -3.7681  -3.6587  -3.5927  -3.5363  -3.3274
    -0.5514  -0.4305  -0.3290  -0.2943  -0.2403  -0.1394  -0.0732  -0.0437
     0.0209   0.0494   0.1321   0.1966   0.2470   0.3148   0.3453   0.4269
     0.4536   0.5008   0.5485   0.5662   0.5929   0.6382   0.6728   0.6888
     0.8199   0.8553   0.8672   0.8876   0.9230   0.9711   1.0040   1.0344
     1.0850   1.0963   1.1006   1.1445   1.2070   1.2157   1.2520   1.2899
     1.3191   1.3816   1.3990   1.4519   1.4918   1.5214   1.5536   1.5877
     1.6176   1.6391   1.6639   1.6922   1.7470   1.7661   1.7752   1.7998
     1.8255   1.8549   1.8639   1.8973   1.9169   1.9584   1.9677   1.9916
     2.0283   2.0755   2.0828   2.1148   2.1696   2.2114   2.2427   2.3395

          k =-0.1250-0.1250 0.1250 (132670 PWs)   bands (ev):

   -18.5672 -18.4919 -18.4876 -18.4852 -18.4754 -18.4714 -18.4681 -18.4431
   -18.4065 -18.3971 -18.3839 -18.3781 -18.3721 -18.3586 -18.3457 -18.3346
   -18.3313 -18.3312 -18.3267 -18.3226 -18.3223 -18.3150 -18.3120 -18.3105
   -18.2991 -18.2896 -18.2893 -18.2831 -18.2799 -18.2719 -18.2001 -18.1897
   -18.1809 -18.1777 -18.1664 -18.1539 -18.1481 -18.1404 -18.1389 -18.1343
   -18.1295 -18.1267 -18.1188 -18.1155 -18.1067 -18.1028 -18.0948 -18.0276
    -9.5978  -9.3822  -9.3022  -9.2446  -9.1631  -9.1265  -9.1106  -9.0688
    -9.0370  -8.9849  -8.9656  -8.9385  -8.9105  -8.8773  -8.8441  -8.8036
    -8.7419  -8.7098  -8.6870  -8.6733  -8.5853  -8.5626  -8.5111  -8.4686
    -5.3393  -5.3299  -5.3243  -5.2541  -5.2394  -5.2342  -5.2278  -5.2229
    -5.2038  -5.1931  -5.1859  -5.1647  -5.0953  -5.0863  -5.0782  -4.9529
    -4.9315  -4.9139  -4.8887  -4.8783  -4.8716  -4.8471  -4.8437  -4.8263
    -4.4463  -3.9802  -3.9413  -3.8688  -3.4589  -3.3595  -3.3365  -2.7785
    -0.8455  -0.7035  -0.6238  -0.5954  -0.5564  -0.5246  -0.4732  -0.4274
    -0.3639  -0.3149  -0.2602  -0.1309   0.3310   0.4216   0.4992   0.5702
     0.6393   0.6780   0.6934   0.7318   0.7949   0.8145   0.8811   0.9310
     0.9651   1.0098   1.0312   1.0543   1.0947   1.1013   1.1449   1.1666
     1.1896   1.2174   1.2446   1.2606   1.2832   1.3083   1.3227   1.3656
     1.3854   1.4071   1.4223   1.4547   1.4718   1.5140   1.5517   1.5667
     1.5940   1.6356   1.6457   1.6672   1.6892   1.7202   1.7440   1.7601
     1.7805   1.8035   1.8418   1.9018   1.9291   1.9922   2.0514   2.1006
     2.1307   2.1978   2.2358   2.3068   2.5355   2.6386   2.7163   3.0740

          k =-0.1250 0.1250-0.1250 (132670 PWs)   bands (ev):

   -18.5672 -18.4919 -18.4876 -18.4852 -18.4754 -18.4714 -18.4681 -18.4431
   -18.4065 -18.3971 -18.3839 -18.3781 -18.3721 -18.3586 -18.3457 -18.3346
   -18.3313 -18.3312 -18.3267 -18.3226 -18.3223 -18.3150 -18.3120 -18.3105
   -18.2991 -18.2896 -18.2893 -18.2831 -18.2799 -18.2719 -18.2001 -18.1897
   -18.1809 -18.1777 -18.1664 -18.1539 -18.1481 -18.1404 -18.1389 -18.1343
   -18.1295 -18.1267 -18.1188 -18.1155 -18.1067 -18.1028 -18.0948 -18.0276
    -9.5979  -9.3814  -9.3003  -9.2516  -9.1591  -9.1212  -9.1107  -9.0744
    -9.0321  -8.9899  -8.9664  -8.9386  -8.9154  -8.8683  -8.8465  -8.8008
    -8.7454  -8.7045  -8.6901  -8.6750  -8.5850  -8.5622  -8.5111  -8.4686
    -5.3393  -5.3299  -5.3244  -5.2543  -5.2394  -5.2341  -5.2277  -5.2229
    -5.2038  -5.1931  -5.1858  -5.1647  -5.0953  -5.0864  -5.0782  -4.9529
    -4.9315  -4.9141  -4.8886  -4.8782  -4.8716  -4.8471  -4.8437  -4.8263
    -4.4466  -3.9739  -3.9435  -3.8731  -3.4551  -3.3639  -3.3367  -2.7770
    -0.8355  -0.7052  -0.6257  -0.6122  -0.5803  -0.5268  -0.4631  -0.4053
    -0.3497  -0.3206  -0.2636  -0.1259   0.3281   0.4245   0.4978   0.5739
     0.6440   0.6728   0.6925   0.7360   0.7909   0.8346   0.8638   0.9191
     0.9755   0.9889   1.0246   1.0517   1.0760   1.1107   1.1310   1.1640
     1.2030   1.2113   1.2479   1.2654   1.2849   1.3171   1.3366   1.3607
     1.3991   1.4056   1.4486   1.4645   1.4976   1.5068   1.5361   1.5567
     1.5702   1.6175   1.6432   1.6702   1.6828   1.7090   1.7443   1.7610
     1.7882   1.8158   1.8428   1.9050   1.9440   1.9879   2.0444   2.1051
     2.1587   2.1790   2.2417   2.2917   2.5317   2.6314   2.7260   3.0748

          k = 0.1250-0.1250-0.1250 (132670 PWs)   bands (ev):

   -18.5672 -18.4919 -18.4876 -18.4852 -18.4754 -18.4714 -18.4681 -18.4431
   -18.4065 -18.3971 -18.3839 -18.3781 -18.3721 -18.3586 -18.3457 -18.3346
   -18.3313 -18.3312 -18.3267 -18.3226 -18.3223 -18.3150 -18.3120 -18.3105
   -18.2991 -18.2896 -18.2893 -18.2831 -18.2799 -18.2719 -18.2001 -18.1897
   -18.1809 -18.1777 -18.1664 -18.1539 -18.1481 -18.1404 -18.1389 -18.1343
   -18.1295 -18.1267 -18.1188 -18.1155 -18.1067 -18.1028 -18.0948 -18.0276
    -9.5978  -9.3830  -9.2977  -9.2498  -9.1621  -9.1255  -9.1104  -9.0753
    -9.0243  -8.9897  -8.9662  -8.9403  -8.9124  -8.8780  -8.8413  -8.8019
    -8.7441  -8.7027  -8.6927  -8.6741  -8.5849  -8.5629  -8.5109  -8.4685
    -5.3393  -5.3299  -5.3243  -5.2542  -5.2394  -5.2342  -5.2277  -5.2229
    -5.2038  -5.1931  -5.1859  -5.1648  -5.0953  -5.0863  -5.0782  -4.9530
    -4.9315  -4.9138  -4.8887  -4.8782  -4.8716  -4.8471  -4.8437  -4.8263
    -4.4468  -3.9632  -3.9562  -3.8712  -3.4540  -3.3679  -3.3329  -2.7781
    -0.8143  -0.7109  -0.6660  -0.6244  -0.5484  -0.5134  -0.4546  -0.4118
    -0.3672  -0.3112  -0.2674  -0.1272   0.3254   0.4208   0.5016   0.5838
     0.6476   0.6693   0.6855   0.7344   0.7809   0.8289   0.8972   0.9388
     0.9655   0.9859   1.0329   1.0610   1.0787   1.0891   1.1197   1.1546
     1.1883   1.2151   1.2320   1.2664   1.2774   1.3196   1.3591   1.3745
     1.3939   1.4104   1.4415   1.4800   1.4988   1.5140   1.5218   1.5486
     1.5773   1.6199   1.6420   1.6689   1.6796   1.7243   1.7316   1.7647
     1.7782   1.8093   1.8488   1.9150   1.9402   1.9876   2.0344   2.1111
     2.1547   2.1857   2.2398   2.2912   2.5317   2.6537   2.7069   3.0652

          k =-0.1250-0.1250 0.3750 (132608 PWs)   bands (ev):

   -18.5672 -18.4919 -18.4875 -18.4852 -18.4754 -18.4714 -18.4681 -18.4431
   -18.4065 -18.3971 -18.3839 -18.3781 -18.3721 -18.3586 -18.3457 -18.3346
   -18.3313 -18.3312 -18.3267 -18.3226 -18.3223 -18.3150 -18.3120 -18.3105
   -18.2991 -18.2896 -18.2893 -18.2831 -18.2799 -18.2719 -18.2001 -18.1897
   -18.1809 -18.1777 -18.1664 -18.1539 -18.1481 -18.1404 -18.1389 -18.1343
   -18.1295 -18.1267 -18.1188 -18.1155 -18.1067 -18.1028 -18.0948 -18.0276
    -9.5943  -9.3793  -9.2971  -9.2452  -9.1908  -9.1312  -9.1046  -9.0718
    -9.0388  -8.9776  -8.9650  -8.9408  -8.8963  -8.8788  -8.8440  -8.8019
    -8.7378  -8.7099  -8.6880  -8.6698  -8.5849  -8.5618  -8.5152  -8.4721
    -5.3392  -5.3299  -5.3243  -5.2543  -5.2394  -5.2329  -5.2280  -5.2235
    -5.2038  -5.1930  -5.1859  -5.1647  -5.0954  -5.0862  -5.0785  -4.9532
    -4.9313  -4.9137  -4.8886  -4.8785  -4.8718  -4.8475  -4.8438  -4.8264
    -4.3295  -4.1114  -3.8482  -3.7521  -3.6118  -3.5293  -3.2228  -2.9744
    -0.8314  -0.7047  -0.5633  -0.5298  -0.4836  -0.4431  -0.3774  -0.2827
    -0.1566  -0.1208   0.0035   0.1341   0.2960   0.4237   0.4789   0.4921
     0.5233   0.5691   0.6075   0.6535   0.6914   0.7259   0.7732   0.8087
     0.8530   0.9036   0.9485   0.9798   1.0069   1.0787   1.1209   1.1314
     1.1681   1.1941   1.2227   1.2419   1.2559   1.2934   1.3190   1.3540
     1.3937   1.4302   1.4444   1.4772   1.4982   1.5241   1.5583   1.5854
     1.6194   1.6491   1.6619   1.6754   1.6872   1.7199   1.7478   1.7773
     1.8084   1.8238   1.8538   1.8737   1.9110   1.9644   1.9822   2.0794
     2.0921   2.1492   2.2062   2.2981   2.3737   2.4537   2.7141   2.8419

          k =-0.1250 0.1250-0.3750 (132608 PWs)   bands (ev):

   -18.5672 -18.4919 -18.4875 -18.4852 -18.4754 -18.4714 -18.4681 -18.4431
   -18.4065 -18.3971 -18.3839 -18.3781 -18.3721 -18.3586 -18.3457 -18.3346
   -18.3313 -18.3312 -18.3267 -18.3226 -18.3223 -18.3150 -18.3120 -18.3105
   -18.2991 -18.2896 -18.2893 -18.2831 -18.2799 -18.2719 -18.2001 -18.1897
   -18.1809 -18.1777 -18.1664 -18.1539 -18.1481 -18.1404 -18.1389 -18.1343
   -18.1295 -18.1267 -18.1188 -18.1155 -18.1067 -18.1028 -18.0948 -18.0276
    -9.5943  -9.3787  -9.2942  -9.2530  -9.1881  -9.1280  -9.0989  -9.0804
    -9.0344  -8.9807  -8.9666  -8.9416  -8.9026  -8.8640  -8.8496  -8.7999
    -8.7408  -8.7077  -8.6879  -8.6718  -8.5842  -8.5617  -8.5154  -8.4721
    -5.3392  -5.3298  -5.3243  -5.2545  -5.2394  -5.2328  -5.2279  -5.2235
    -5.2038  -5.1931  -5.1858  -5.1647  -5.0953  -5.0862  -5.0785  -4.9532
    -4.9313  -4.9139  -4.8885  -4.8784  -4.8717  -4.8474  -4.8438  -4.8264
    -4.3299  -4.1116  -3.8419  -3.7575  -3.6083  -3.5348  -3.2227  -2.9725
    -0.8216  -0.7070  -0.5935  -0.5254  -0.4825  -0.4172  -0.4012  -0.2884
    -0.1436  -0.1041   0.0097   0.1381   0.2873   0.4229   0.4673   0.4941
     0.5413   0.5496   0.6003   0.6694   0.6800   0.7327   0.7813   0.7923
     0.8640   0.9111   0.9480   0.9607   1.0255   1.0767   1.0955   1.1036
     1.1495   1.1904   1.2381   1.2468   1.2824   1.2892   1.3462   1.3810
     1.3995   1.4100   1.4448   1.4774   1.5131   1.5317   1.5432   1.5639
     1.5898   1.6422   1.6534   1.6883   1.7037   1.7053   1.7521   1.7828
     1.8100   1.8388   1.8537   1.8736   1.9007   1.9749   2.0017   2.0700
     2.1042   2.1401   2.2132   2.2857   2.3729   2.4495   2.7154   2.8375

          k = 0.1250-0.1250-0.3750 (132608 PWs)   bands (ev):

   -18.5672 -18.4919 -18.4875 -18.4852 -18.4754 -18.4714 -18.4681 -18.4431
   -18.4065 -18.3971 -18.3839 -18.3781 -18.3721 -18.3586 -18.3457 -18.3346
   -18.3313 -18.3312 -18.3267 -18.3226 -18.3223 -18.3150 -18.3120 -18.3105
   -18.2991 -18.2896 -18.2893 -18.2831 -18.2799 -18.2719 -18.2001 -18.1897
   -18.1809 -18.1777 -18.1664 -18.1539 -18.1481 -18.1404 -18.1389 -18.1343
   -18.1295 -18.1267 -18.1188 -18.1155 -18.1067 -18.1028 -18.0948 -18.0276
    -9.5943  -9.3805  -9.2899  -9.2525  -9.1909  -9.1330  -9.0914  -9.0877
    -9.0286  -8.9790  -8.9662  -8.9442  -8.8927  -8.8837  -8.8400  -8.8021
    -8.7387  -8.7075  -8.6891  -8.6712  -8.5841  -8.5624  -8.5151  -8.4721
    -5.3392  -5.3298  -5.3243  -5.2544  -5.2394  -5.2329  -5.2279  -5.2235
    -5.2038  -5.1931  -5.1858  -5.1647  -5.0954  -5.0861  -5.0785  -4.9532
    -4.9314  -4.9137  -4.8886  -4.8784  -4.8718  -4.8474  -4.8438  -4.8263
    -4.3303  -4.1106  -3.8445  -3.7549  -3.6101  -3.5334  -3.2213  -2.9744
    -0.8139  -0.7086  -0.5963  -0.5082  -0.4984  -0.4398  -0.3831  -0.2794
    -0.1605  -0.0985  -0.0017   0.1414   0.2895   0.4150   0.4816   0.4941
     0.5326   0.5700   0.6082   0.6530   0.6997   0.7222   0.7768   0.7979
     0.8501   0.9192   0.9490   0.9759   1.0294   1.0571   1.0957   1.1047
     1.1350   1.1789   1.2264   1.2491   1.2754   1.3089   1.3389   1.3891
     1.4088   1.4181   1.4542   1.4752   1.5188   1.5262   1.5391   1.5658
     1.5877   1.6443   1.6614   1.6833   1.7015   1.7173   1.7476   1.7619
     1.8077   1.8183   1.8675   1.8853   1.9101   1.9719   1.9917   2.0598
     2.1175   2.1511   2.2041   2.2949   2.3614   2.4589   2.7078   2.8351

          k = 0.3750-0.1250 0.1250 (132608 PWs)   bands (ev):

   -18.5672 -18.4919 -18.4876 -18.4852 -18.4754 -18.4714 -18.4681 -18.4431
   -18.4065 -18.3971 -18.3839 -18.3781 -18.3721 -18.3586 -18.3457 -18.3346
   -18.3313 -18.3312 -18.3267 -18.3226 -18.3223 -18.3150 -18.3120 -18.3105
   -18.2991 -18.2896 -18.2893 -18.2831 -18.2799 -18.2719 -18.2001 -18.1897
   -18.1809 -18.1777 -18.1664 -18.1539 -18.1481 -18.1404 -18.1389 -18.1343
   -18.1295 -18.1267 -18.1188 -18.1155 -18.1067 -18.1028 -18.0948 -18.0276
    -9.5965  -9.3747  -9.2965  -9.2569  -9.1621  -9.1321  -9.1099  -9.0831
    -9.0353  -8.9890  -8.9666  -8.9429  -8.9063  -8.8739  -8.8269  -8.8027
    -8.7453  -8.6981  -8.6898  -8.6690  -8.5911  -8.5623  -8.5168  -8.4690
    -5.3391  -5.3298  -5.3240  -5.2542  -5.2394  -5.2341  -5.2275  -5.2230
    -5.2039  -5.1931  -5.1859  -5.1647  -5.0953  -5.0864  -5.0783  -4.9528
    -4.9316  -4.9140  -4.8891  -4.8785  -4.8716  -4.8473  -4.8439  -4.8260
    -4.3579  -4.0699  -3.8713  -3.7850  -3.5762  -3.4851  -3.2639  -2.9484
    -0.8353  -0.6907  -0.6160  -0.5922  -0.5554  -0.4824  -0.3855  -0.2230
    -0.1144  -0.0649   0.0225   0.0945   0.3027   0.3438   0.4485   0.5141
     0.5466   0.6117   0.6440   0.6755   0.7017   0.7337   0.7656   0.8097
     0.8628   0.9282   0.9554   0.9913   1.0376   1.0729   1.1001   1.1225
     1.1601   1.1880   1.2298   1.2567   1.2778   1.3157   1.3317   1.3547
     1.3919   1.4221   1.4511   1.4631   1.5180   1.5356   1.5546   1.5748
     1.6002   1.6099   1.6478   1.6753   1.7018   1.7280   1.7414   1.7803
     1.7893   1.8236   1.8623   1.8909   1.9212   1.9437   2.0255   2.0537
     2.0995   2.1483   2.2249   2.2652   2.3904   2.4911   2.6323   2.8485

          k =-0.3750-0.1250-0.1250 (132608 PWs)   bands (ev):

   -18.5672 -18.4919 -18.4876 -18.4852 -18.4754 -18.4714 -18.4681 -18.4431
   -18.4065 -18.3971 -18.3839 -18.3781 -18.3721 -18.3586 -18.3457 -18.3346
   -18.3313 -18.3312 -18.3267 -18.3226 -18.3223 -18.3150 -18.3120 -18.3105
   -18.2991 -18.2896 -18.2893 -18.2831 -18.2799 -18.2719 -18.2001 -18.1897
   -18.1809 -18.1777 -18.1664 -18.1539 -18.1481 -18.1404 -18.1389 -18.1343
   -18.1295 -18.1267 -18.1188 -18.1155 -18.1067 -18.1028 -18.0948 -18.0276
    -9.5964  -9.3762  -9.2978  -9.2507  -9.1628  -9.1387  -9.1083  -9.0835
    -9.0273  -8.9985  -8.9639  -8.9427  -8.9040  -8.8737  -8.8267  -8.8040
    -8.7462  -8.7031  -8.6873  -8.6648  -8.5920  -8.5622  -8.5169  -8.4690
    -5.3391  -5.3298  -5.3240  -5.2541  -5.2393  -5.2342  -5.2276  -5.2230
    -5.2039  -5.1931  -5.1860  -5.1647  -5.0953  -5.0863  -5.0783  -4.9528
    -4.9317  -4.9140  -4.8891  -4.8784  -4.8716  -4.8473  -4.8439  -4.8260
    -4.3572  -4.0729  -3.8703  -3.7825  -3.5774  -3.4867  -3.2607  -2.9502
    -0.8175  -0.7192  -0.6215  -0.5942  -0.5441  -0.4534  -0.4093  -0.2195
    -0.1185  -0.0700   0.0198   0.1080   0.3039   0.3357   0.4407   0.5079
     0.5544   0.6127   0.6591   0.6754   0.6980   0.7369   0.7459   0.8210
     0.8855   0.9198   0.9529   1.0195   1.0363   1.0747   1.0859   1.1268
     1.1602   1.1834   1.2125   1.2535   1.2797   1.2974   1.3372   1.3702
     1.3857   1.4179   1.4425   1.4675   1.4991   1.5273   1.5572   1.5783
     1.5941   1.6214   1.6476   1.6855   1.7113   1.7301   1.7417   1.7770
     1.8055   1.8348   1.8538   1.8792   1.9118   1.9292   2.0173   2.0596
     2.1097   2.1540   2.2361   2.2743   2.3906   2.4814   2.6368   2.8388

          k = 0.3750 0.1250-0.1250 (132608 PWs)   bands (ev):

   -18.5672 -18.4919 -18.4876 -18.4852 -18.4754 -18.4714 -18.4681 -18.4431
   -18.4065 -18.3971 -18.3839 -18.3781 -18.3721 -18.3586 -18.3457 -18.3346
   -18.3313 -18.3312 -18.3267 -18.3226 -18.3223 -18.3150 -18.3120 -18.3105
   -18.2991 -18.2896 -18.2893 -18.2831 -18.2799 -18.2719 -18.2001 -18.1897
   -18.1809 -18.1777 -18.1664 -18.1539 -18.1481 -18.1404 -18.1389 -18.1343
   -18.1295 -18.1267 -18.1188 -18.1155 -18.1067 -18.1028 -18.0948 -18.0276
    -9.5964  -9.3756  -9.2990  -9.2490  -9.1655  -9.1381  -9.1111  -9.0754
    -9.0406  -8.9860  -8.9636  -8.9429  -8.9030  -8.8798  -8.8259  -8.8063
    -8.7422  -8.7037  -8.6856  -8.6672  -8.5916  -8.5627  -8.5167  -8.4691
    -5.3392  -5.3298  -5.3240  -5.2540  -5.2393  -5.2343  -5.2276  -5.2230
    -5.2039  -5.1931  -5.1860  -5.1647  -5.0953  -5.0863  -5.0783  -4.9528
    -4.9316  -4.9138  -4.8892  -4.8786  -4.8716  -4.8473  -4.8439  -4.8260
    -4.3572  -4.0733  -3.8686  -3.7839  -3.5780  -3.4857  -3.2602  -2.9512
    -0.8424  -0.6896  -0.6046  -0.5944  -0.5487  -0.4756  -0.3883  -0.2109
    -0.1385  -0.0805   0.0119   0.1009   0.3096   0.3464   0.4368   0.5127
     0.5617   0.6098   0.6666   0.6760   0.7076   0.7434   0.7503   0.8032
     0.8621   0.9162   0.9718   0.9852   1.0527   1.0693   1.0969   1.1313
     1.1637   1.1880   1.2273   1.2365   1.3005   1.3169   1.3278   1.3554
     1.3739   1.4173   1.4369   1.4522   1.5131   1.5390   1.5593   1.5830
     1.5939   1.6173   1.6498   1.6824   1.6976   1.7285   1.7523   1.7700
     1.8092   1.8374   1.8534   1.8804   1.9183   1.9506   2.0022   2.0444
     2.0988   2.1469   2.2265   2.2894   2.3797   2.5019   2.6285   2.8467

          k =-0.3750 0.1250 0.1250 (132608 PWs)   bands (ev):

   -18.5672 -18.4919 -18.4876 -18.4852 -18.4754 -18.4714 -18.4681 -18.4431
   -18.4065 -18.3971 -18.3839 -18.3781 -18.3721 -18.3586 -18.3457 -18.3346
   -18.3313 -18.3312 -18.3267 -18.3226 -18.3223 -18.3150 -18.3120 -18.3105
   -18.2991 -18.2896 -18.2893 -18.2831 -18.2799 -18.2719 -18.2001 -18.1897
   -18.1809 -18.1777 -18.1664 -18.1539 -18.1481 -18.1404 -18.1389 -18.1343
   -18.1295 -18.1267 -18.1188 -18.1155 -18.1067 -18.1028 -18.0948 -18.0276
    -9.5964  -9.3763  -9.2951  -9.2522  -9.1679  -9.1367  -9.1086  -9.0844
    -9.0203  -8.9974  -8.9654  -8.9424  -8.9083  -8.8772  -8.8226  -8.8046
    -8.7439  -8.7016  -8.6878  -8.6683  -8.5905  -8.5634  -8.5165  -8.4690
    -5.3392  -5.3298  -5.3240  -5.2541  -5.2394  -5.2342  -5.2276  -5.2230
    -5.2039  -5.1931  -5.1859  -5.1648  -5.0953  -5.0863  -5.0783  -4.9528
    -4.9317  -4.9137  -4.8892  -4.8785  -4.8716  -4.8473  -4.8439  -4.8260
    -4.3581  -4.0695  -3.8713  -3.7855  -3.5775  -3.4831  -3.2634  -2.9497
    -0.8175  -0.7148  -0.6246  -0.6001  -0.5418  -0.4448  -0.4115  -0.2051
    -0.1329  -0.0676   0.0120   0.0911   0.3049   0.3455   0.4480   0.5154
     0.5611   0.6042   0.6622   0.6727   0.6896   0.7467   0.7741   0.7953
     0.8756   0.9332   0.9494   1.0106   1.0333   1.0493   1.0792   1.1159
     1.1634   1.1887   1.2203   1.2536   1.2721   1.3093   1.3496   1.3720
     1.3900   1.4367   1.4716   1.4819   1.5014   1.5154   1.5493   1.5748
     1.5855   1.6220   1.6570   1.6666   1.6901   1.7305   1.7470   1.7633
     1.8045   1.8298   1.8621   1.8890   1.9197   1.9444   2.0137   2.0562
     2.0913   2.1678   2.2201   2.2629   2.4006   2.4840   2.6380   2.8385

          k =-0.1250 0.3750 0.1250 (132608 PWs)   bands (ev):

   -18.5672 -18.4919 -18.4876 -18.4852 -18.4754 -18.4714 -18.4681 -18.4431
   -18.4065 -18.3971 -18.3839 -18.3781 -18.3721 -18.3586 -18.3457 -18.3346
   -18.3313 -18.3312 -18.3267 -18.3226 -18.3223 -18.3150 -18.3120 -18.3105
   -18.2991 -18.2896 -18.2893 -18.2831 -18.2799 -18.2719 -18.2001 -18.1897
   -18.1809 -18.1777 -18.1664 -18.1539 -18.1481 -18.1404 -18.1389 -18.1343
   -18.1295 -18.1267 -18.1188 -18.1155 -18.1067 -18.1028 -18.0948 -18.0276
    -9.5937  -9.3821  -9.3093  -9.2272  -9.1668  -9.1500  -9.1192  -9.0843
    -9.0024  -8.9867  -8.9635  -8.9375  -8.9125  -8.8708  -8.8402  -8.8198
    -8.7445  -8.7085  -8.6864  -8.6552  -8.5883  -8.5596  -8.5088  -8.4797
    -5.3393  -5.3298  -5.3244  -5.2542  -5.2389  -5.2342  -5.2277  -5.2230
    -5.2036  -5.1932  -5.1857  -5.1649  -5.0953  -5.0860  -5.0775  -4.9529
    -4.9315  -4.9140  -4.8889  -4.8790  -4.8718  -4.8471  -4.8432  -4.8265
    -4.3131  -4.0865  -3.8307  -3.8005  -3.5706  -3.5414  -3.2974  -2.9997
    -0.7095  -0.6250  -0.5699  -0.5241  -0.4459  -0.4079  -0.3672  -0.3122
    -0.2733  -0.0901  -0.0059   0.1271   0.3295   0.4151   0.4505   0.4893
     0.5514   0.5927   0.6304   0.6715   0.6963   0.7328   0.7456   0.8156
     0.8215   0.8653   0.9603   0.9884   1.0210   1.0638   1.0901   1.1458
     1.1612   1.1724   1.2248   1.2458   1.2723   1.3211   1.3433   1.3734
     1.3937   1.4210   1.4487   1.4798   1.5184   1.5223   1.5502   1.5671
     1.5751   1.5855   1.6497   1.6529   1.6934   1.7310   1.7405   1.7740
     1.7851   1.8193   1.8555   1.8941   1.9314   1.9380   2.0078   2.0671
     2.1085   2.1317   2.1675   2.2223   2.3447   2.4159   2.6061   2.8235

          k =-0.1250-0.3750-0.1250 (132608 PWs)   bands (ev):

   -18.5672 -18.4919 -18.4876 -18.4852 -18.4754 -18.4714 -18.4681 -18.4431
   -18.4065 -18.3971 -18.3839 -18.3781 -18.3721 -18.3586 -18.3457 -18.3346
   -18.3313 -18.3312 -18.3267 -18.3226 -18.3223 -18.3150 -18.3120 -18.3105
   -18.2991 -18.2896 -18.2893 -18.2831 -18.2799 -18.2719 -18.2001 -18.1897
   -18.1809 -18.1777 -18.1664 -18.1539 -18.1481 -18.1404 -18.1389 -18.1343
   -18.1295 -18.1267 -18.1188 -18.1155 -18.1067 -18.1028 -18.0948 -18.0276
    -9.5936  -9.3820  -9.3107  -9.2261  -9.1727  -9.1386  -9.1205  -9.0846
    -9.0116  -8.9867  -8.9656  -8.9384  -8.8992  -8.8657  -8.8506  -8.8186
    -8.7474  -8.7077  -8.6862  -8.6535  -8.5893  -8.5588  -8.5091  -8.4797
    -5.3393  -5.3298  -5.3244  -5.2542  -5.2389  -5.2343  -5.2276  -5.2230
    -5.2037  -5.1932  -5.1858  -5.1648  -5.0953  -5.0860  -5.0775  -4.9528
    -4.9315  -4.9143  -4.8888  -4.8789  -4.8718  -4.8471  -4.8432  -4.8265
    -4.3116  -4.0902  -3.8284  -3.7986  -3.5729  -3.5438  -3.2934  -3.0007
    -0.7056  -0.6247  -0.5896  -0.5255  -0.4508  -0.3930  -0.3631  -0.3198
    -0.2484  -0.0937  -0.0167   0.1306   0.3323   0.4049   0.4444   0.4878
     0.5477   0.5964   0.6279   0.6609   0.7104   0.7314   0.7589   0.7934
     0.8559   0.8711   0.9559   0.9987   1.0168   1.0574   1.0949   1.1436
     1.1623   1.1846   1.2272   1.2401   1.2746   1.2946   1.3233   1.3723
     1.4089   1.4234   1.4330   1.4643   1.4939   1.5173   1.5474   1.5749
     1.5877   1.6194   1.6385   1.6814   1.6968   1.7265   1.7432   1.7660
     1.7901   1.8283   1.8542   1.8935   1.9114   1.9183   2.0084   2.0783
     2.1057   2.1388   2.1674   2.2388   2.3562   2.4055   2.5942   2.8309

          k = 0.1250 0.3750-0.1250 (132608 PWs)   bands (ev):

   -18.5672 -18.4919 -18.4876 -18.4852 -18.4754 -18.4714 -18.4681 -18.4431
   -18.4065 -18.3971 -18.3839 -18.3781 -18.3721 -18.3586 -18.3457 -18.3346
   -18.3313 -18.3312 -18.3267 -18.3226 -18.3223 -18.3150 -18.3120 -18.3105
   -18.2991 -18.2896 -18.2893 -18.2831 -18.2799 -18.2719 -18.2001 -18.1897
   -18.1809 -18.1777 -18.1664 -18.1539 -18.1481 -18.1404 -18.1389 -18.1343
   -18.1295 -18.1267 -18.1188 -18.1155 -18.1067 -18.1028 -18.0948 -18.0276
    -9.5937  -9.3812  -9.3128  -9.2204  -9.1738  -9.1490  -9.1142  -9.0862
    -9.0120  -8.9796  -8.9641  -8.9353  -8.9111  -8.8645  -8.8496  -8.8193
    -8.7433  -8.7118  -8.6836  -8.6546  -8.5889  -8.5592  -8.5090  -8.4797
    -5.3393  -5.3298  -5.3244  -5.2541  -5.2389  -5.2342  -5.2277  -5.2230
    -5.2037  -5.1932  -5.1858  -5.1648  -5.0954  -5.0860  -5.0775  -4.9529
    -4.9314  -4.9140  -4.8889  -4.8791  -4.8718  -4.8471  -4.8432  -4.8265
    -4.3115  -4.0917  -3.8196  -3.8048  -3.5832  -3.5328  -3.2953  -3.0007
    -0.7392  -0.5987  -0.5748  -0.5093  -0.4517  -0.3957  -0.3543  -0.3202
    -0.2621  -0.1186  -0.0223   0.1303   0.3489   0.4043   0.4421   0.4961
     0.5389   0.5948   0.6292   0.6703   0.7017   0.7335   0.7509   0.8050
     0.8502   0.8767   0.9551   0.9808   1.0171   1.0583   1.0940   1.1474
     1.1625   1.2047   1.2382   1.2499   1.2664   1.3030   1.3388   1.3637
     1.3856   1.4090   1.4372   1.4439   1.4927   1.5158   1.5624   1.5815
     1.6028   1.6246   1.6460   1.6563   1.6973   1.7211   1.7573   1.7680
     1.7788   1.8204   1.8565   1.8931   1.9127   1.9424   1.9996   2.0580
     2.0887   2.1440   2.1915   2.2345   2.3453   2.3990   2.6056   2.8328

          k = 0.1250-0.3750 0.1250 (132608 PWs)   bands (ev):

   -18.5672 -18.4919 -18.4876 -18.4852 -18.4754 -18.4714 -18.4681 -18.4431
   -18.4065 -18.3971 -18.3839 -18.3781 -18.3721 -18.3586 -18.3457 -18.3346
   -18.3313 -18.3312 -18.3267 -18.3226 -18.3223 -18.3150 -18.3120 -18.3105
   -18.2991 -18.2896 -18.2893 -18.2831 -18.2799 -18.2719 -18.2001 -18.1897
   -18.1809 -18.1777 -18.1664 -18.1539 -18.1481 -18.1404 -18.1389 -18.1343
   -18.1295 -18.1267 -18.1188 -18.1155 -18.1067 -18.1028 -18.0948 -18.0276
    -9.5937  -9.3802  -9.3122  -9.2278  -9.1763  -9.1326  -9.1155  -9.0908
    -9.0117  -8.9835  -8.9650  -8.9376  -8.9095  -8.8632  -8.8465  -8.8187
    -8.7455  -8.7084  -8.6864  -8.6559  -8.5879  -8.5593  -8.5089  -8.4797
    -5.3392  -5.3298  -5.3244  -5.2543  -5.2389  -5.2342  -5.2276  -5.2230
    -5.2036  -5.1933  -5.1857  -5.1649  -5.0953  -5.0861  -5.0775  -4.9529
    -4.9314  -4.9143  -4.8888  -4.8789  -4.8717  -4.8471  -4.8432  -4.8265
    -4.3127  -4.0872  -3.8234  -3.8063  -3.5823  -3.5304  -3.2985  -2.9985
    -0.7307  -0.6062  -0.5692  -0.5326  -0.4487  -0.3896  -0.3678  -0.3122
    -0.2537  -0.1158  -0.0115   0.1296   0.3462   0.4032   0.4556   0.4940
     0.5429   0.5966   0.6234   0.6703   0.7053   0.7292   0.7482   0.8062
     0.8271   0.8641   0.9400   0.9962   1.0241   1.0585   1.0837   1.1396
     1.1829   1.1987   1.2246   1.2353   1.2867   1.3087   1.3434   1.3740
     1.3838   1.4186   1.4396   1.4731   1.5002   1.5188   1.5509   1.5706
     1.5967   1.6097   1.6364   1.6743   1.6834   1.7140   1.7425   1.7689
     1.7993   1.8214   1.8590   1.8905   1.9163   1.9472   2.0006   2.0684
     2.0988   2.1293   2.1748   2.2419   2.3331   2.4071   2.6119   2.8318

          k =-0.1250-0.3750 0.3750 (132616 PWs)   bands (ev):

   -18.5672 -18.4919 -18.4875 -18.4852 -18.4754 -18.4714 -18.4681 -18.4431
   -18.4065 -18.3971 -18.3839 -18.3781 -18.3721 -18.3586 -18.3457 -18.3346
   -18.3313 -18.3312 -18.3267 -18.3226 -18.3223 -18.3150 -18.3120 -18.3105
   -18.2991 -18.2896 -18.2893 -18.2831 -18.2799 -18.2719 -18.2001 -18.1897
   -18.1809 -18.1777 -18.1664 -18.1539 -18.1481 -18.1404 -18.1389 -18.1343
   -18.1295 -18.1267 -18.1188 -18.1155 -18.1067 -18.1028 -18.0948 -18.0276
    -9.5910  -9.3713  -9.3113  -9.2309  -9.1941  -9.1532  -9.1140  -9.0811
    -9.0085  -8.9744  -8.9693  -8.9414  -8.8969  -8.8646  -8.8475  -8.8171
    -8.7382  -8.7117  -8.6862  -8.6515  -8.5886  -8.5585  -8.5138  -8.4814
    -5.3392  -5.3298  -5.3244  -5.2543  -5.2389  -5.2330  -5.2281  -5.2237
    -5.2037  -5.1932  -5.1858  -5.1649  -5.0954  -5.0857  -5.0777  -4.9531
    -4.9311  -4.9139  -4.8887  -4.8791  -4.8719  -4.8474  -4.8433  -4.8267
    -4.1990  -4.0137  -3.9272  -3.7548  -3.6791  -3.4725  -3.4092  -3.1806
    -0.6211  -0.5471  -0.4843  -0.4216  -0.3852  -0.2466  -0.2041  -0.1799
    -0.0889   0.0067   0.1187   0.1735   0.2981   0.3774   0.4101   0.4552
     0.5157   0.5458   0.5925   0.6354   0.6541   0.6663   0.7000   0.7399
     0.7910   0.8289   0.8762   0.9054   0.9307   0.9840   1.0276   1.0535
     1.0732   1.1309   1.1714   1.2099   1.2184   1.2873   1.3316   1.3452
     1.3829   1.4176   1.4456   1.4786   1.4887   1.5143   1.5392   1.5817
     1.6257   1.6457   1.6720   1.6797   1.6969   1.7270   1.7719   1.7865
     1.8186   1.8427   1.8637   1.8861   1.9194   1.9305   1.9798   2.0159
     2.0581   2.1167   2.1484   2.1782   2.2276   2.3263   2.4674   2.5740

          k =-0.1250 0.3750-0.3750 (132616 PWs)   bands (ev):

   -18.5672 -18.4919 -18.4875 -18.4852 -18.4754 -18.4714 -18.4681 -18.4431
   -18.4065 -18.3971 -18.3839 -18.3781 -18.3721 -18.3586 -18.3457 -18.3346
   -18.3313 -18.3312 -18.3267 -18.3226 -18.3223 -18.3150 -18.3120 -18.3105
   -18.2991 -18.2896 -18.2893 -18.2831 -18.2799 -18.2719 -18.2001 -18.1897
   -18.1809 -18.1777 -18.1664 -18.1539 -18.1481 -18.1404 -18.1389 -18.1343
   -18.1295 -18.1267 -18.1188 -18.1155 -18.1067 -18.1028 -18.0948 -18.0276
    -9.5911  -9.3705  -9.3103  -9.2364  -9.1969  -9.1443  -9.1106  -9.0851
    -9.0080  -8.9767  -8.9722  -8.9427  -8.8954  -8.8611  -8.8466  -8.8175
    -8.7397  -8.7105  -8.6871  -8.6529  -8.5873  -8.5587  -8.5139  -8.4814
    -5.3392  -5.3298  -5.3244  -5.2545  -5.2389  -5.2328  -5.2280  -5.2237
    -5.2037  -5.1933  -5.1857  -5.1649  -5.0954  -5.0858  -5.0777  -4.9531
    -4.9312  -4.9141  -4.8887  -4.8790  -4.8718  -4.8474  -4.8433  -4.8267
    -4.2005  -4.0109  -3.9255  -3.7519  -3.6869  -3.4729  -3.4092  -3.1782
    -0.5981  -0.5469  -0.4958  -0.4573  -0.3933  -0.2531  -0.1831  -0.1658
    -0.0855   0.0251   0.1195   0.1741   0.2948   0.3779   0.3971   0.4781
     0.5006   0.5450   0.6049   0.6161   0.6549   0.6661   0.6931   0.7446
     0.7860   0.8302   0.8759   0.8840   0.9319   0.9969   1.0090   1.0593
     1.0764   1.1230   1.1732   1.2006   1.2426   1.2721   1.3256   1.3602
     1.3990   1.4346   1.4500   1.4727   1.4872   1.5213   1.5489   1.5787
     1.5966   1.6256   1.6638   1.6928   1.7097   1.7283   1.7585   1.7852
     1.8190   1.8488   1.8728   1.8899   1.9133   1.9407   1.9823   2.0309
     2.0578   2.1158   2.1257   2.1867   2.2093   2.3504   2.4535   2.5735

          k = 0.1250-0.3750-0.3750 (132616 PWs)   bands (ev):

   -18.5672 -18.4919 -18.4875 -18.4852 -18.4754 -18.4714 -18.4681 -18.4431
   -18.4065 -18.3971 -18.3839 -18.3781 -18.3721 -18.3586 -18.3457 -18.3346
   -18.3313 -18.3312 -18.3267 -18.3226 -18.3223 -18.3150 -18.3120 -18.3105
   -18.2991 -18.2896 -18.2893 -18.2831 -18.2799 -18.2719 -18.2001 -18.1897
   -18.1809 -18.1777 -18.1664 -18.1539 -18.1481 -18.1404 -18.1389 -18.1343
   -18.1295 -18.1267 -18.1188 -18.1155 -18.1067 -18.1028 -18.0948 -18.0276
    -9.5910  -9.3731  -9.3055  -9.2373  -9.1941  -9.1508  -9.1148  -9.0817
    -9.0005  -8.9801  -8.9679  -8.9452  -8.8959  -8.8707  -8.8376  -8.8203
    -8.7383  -8.7107  -8.6872  -8.6523  -8.5878  -8.5591  -8.5137  -8.4814
    -5.3393  -5.3298  -5.3244  -5.2544  -5.2389  -5.2329  -5.2280  -5.2236
    -5.2037  -5.1933  -5.1857  -5.1650  -5.0954  -5.0857  -5.0777  -4.9531
    -4.9312  -4.9138  -4.8888  -4.8790  -4.8719  -4.8473  -4.8433  -4.8266
    -4.2017  -4.0018  -3.9381  -3.7473  -3.6831  -3.4833  -3.4003  -3.1806
    -0.5760  -0.5504  -0.5086  -0.4197  -0.4009  -0.3161  -0.2298  -0.1425
    -0.0182   0.0392   0.0738   0.2008   0.2899   0.3563   0.4105   0.4489
     0.5256   0.5575   0.5879   0.6128   0.6465   0.6890   0.7143   0.7440
     0.7822   0.8135   0.8763   0.8965   0.9437   0.9841   1.0199   1.0369
     1.0767   1.0998   1.1657   1.1992   1.2540   1.2921   1.3350   1.3579
     1.3971   1.4320   1.4513   1.4765   1.4944   1.5151   1.5444   1.5815
     1.5923   1.6197   1.6580   1.6960   1.7143   1.7274   1.7531   1.7892
     1.8211   1.8345   1.8628   1.9125   1.9273   1.9416   1.9790   2.0335
     2.0621   2.0932   2.1433   2.1634   2.2268   2.3472   2.4568   2.5650

          k = 0.3750 0.1250-0.3750 (132616 PWs)   bands (ev):

   -18.5672 -18.4919 -18.4875 -18.4852 -18.4754 -18.4714 -18.4681 -18.4431
   -18.4065 -18.3971 -18.3839 -18.3781 -18.3721 -18.3586 -18.3457 -18.3346
   -18.3313 -18.3312 -18.3267 -18.3226 -18.3223 -18.3150 -18.3120 -18.3105
   -18.2991 -18.2896 -18.2893 -18.2831 -18.2799 -18.2719 -18.2001 -18.1897
   -18.1809 -18.1777 -18.1664 -18.1539 -18.1481 -18.1404 -18.1389 -18.1343
   -18.1295 -18.1267 -18.1188 -18.1155 -18.1067 -18.1028 -18.0948 -18.0276
    -9.5930  -9.3745  -9.2919  -9.2409  -9.1953  -9.1427  -9.1208  -9.0812
    -9.0348  -8.9716  -8.9518  -8.9469  -8.8966  -8.8911  -8.8197  -8.8034
    -8.7400  -8.7021  -8.6883  -8.6646  -8.5927  -8.5616  -8.5186  -8.4725
    -5.3392  -5.3299  -5.3241  -5.2544  -5.2394  -5.2329  -5.2278  -5.2234
    -5.2039  -5.1930  -5.1859  -5.1647  -5.0953  -5.0861  -5.0787  -4.9533
    -4.9314  -4.9140  -4.8889  -4.8787  -4.8715  -4.8475  -4.8442  -4.8260
    -4.2416  -4.0261  -3.9514  -3.7345  -3.6639  -3.4517  -3.3598  -3.1278
    -0.8371  -0.6826  -0.5658  -0.4194  -0.3088  -0.2299  -0.1793  -0.1010
    -0.0430   0.0162   0.0751   0.1439   0.2794   0.3580   0.4131   0.4558
     0.4965   0.5264   0.5565   0.6407   0.6545   0.6824   0.7128   0.7557
     0.7890   0.8604   0.8862   0.9388   0.9808   1.0173   1.0586   1.0660
     1.1202   1.1446   1.1842   1.2155   1.2506   1.2776   1.2987   1.3313
     1.3512   1.3674   1.4274   1.4447   1.5077   1.5408   1.5797   1.5937
     1.6259   1.6432   1.6649   1.6876   1.7130   1.7617   1.7711   1.7961
     1.8055   1.8489   1.8719   1.8839   1.9209   1.9391   1.9607   2.0058
     2.0534   2.1184   2.1557   2.2099   2.2814   2.4242   2.4908   2.6482

          k =-0.3750-0.1250-0.3750 (132616 PWs)   bands (ev):

   -18.5672 -18.4919 -18.4875 -18.4852 -18.4754 -18.4714 -18.4681 -18.4431
   -18.4065 -18.3971 -18.3839 -18.3781 -18.3721 -18.3586 -18.3457 -18.3346
   -18.3313 -18.3312 -18.3267 -18.3226 -18.3223 -18.3150 -18.3120 -18.3105
   -18.2991 -18.2896 -18.2893 -18.2831 -18.2799 -18.2719 -18.2001 -18.1897
   -18.1809 -18.1777 -18.1664 -18.1539 -18.1481 -18.1404 -18.1389 -18.1343
   -18.1295 -18.1267 -18.1188 -18.1155 -18.1067 -18.1028 -18.0948 -18.0276
    -9.5930  -9.3751  -9.2903  -9.2439  -9.1914  -9.1479  -9.1126  -9.0880
    -9.0273  -8.9788  -8.9605  -8.9409  -8.9015  -8.8806  -8.8209  -8.8006
    -8.7445  -8.6996  -8.6918  -8.6620  -8.5931  -8.5611  -8.5189  -8.4725
    -5.3391  -5.3298  -5.3242  -5.2545  -5.2394  -5.2329  -5.2278  -5.2235
    -5.2039  -5.1930  -5.1859  -5.1647  -5.0952  -5.0861  -5.0787  -4.9532
    -4.9315  -4.9142  -4.8888  -4.8785  -4.8715  -4.8475  -4.8442  -4.8260
    -4.2416  -4.0226  -3.9568  -3.7319  -3.6627  -3.4551  -3.3598  -3.1262
    -0.8272  -0.6887  -0.5726  -0.4129  -0.3218  -0.2622  -0.2030  -0.0641
     0.0019   0.0318   0.0887   0.1690   0.2364   0.3381   0.4040   0.4411
     0.4774   0.5235   0.5841   0.6315   0.6641   0.6848   0.7233   0.7398
     0.7928   0.8629   0.8992   0.9505   0.9705   1.0164   1.0548   1.0822
     1.0976   1.1555   1.1922   1.2036   1.2368   1.2674   1.2973   1.3330
     1.3586   1.3706   1.4367   1.4738   1.4862   1.5323   1.5791   1.6001
     1.6126   1.6309   1.6591   1.6773   1.7417   1.7631   1.7750   1.7939
     1.8225   1.8427   1.8573   1.8851   1.9041   1.9240   1.9718   2.0292
     2.0718   2.1108   2.1797   2.1939   2.2780   2.4150   2.5009   2.6361

          k = 0.3750-0.1250 0.3750 (132616 PWs)   bands (ev):

   -18.5672 -18.4919 -18.4875 -18.4852 -18.4754 -18.4714 -18.4681 -18.4431
   -18.4065 -18.3971 -18.3839 -18.3781 -18.3721 -18.3586 -18.3457 -18.3346
   -18.3313 -18.3312 -18.3267 -18.3226 -18.3223 -18.3150 -18.3120 -18.3105
   -18.2991 -18.2896 -18.2893 -18.2831 -18.2799 -18.2719 -18.2001 -18.1897
   -18.1809 -18.1777 -18.1664 -18.1539 -18.1481 -18.1404 -18.1389 -18.1343
   -18.1295 -18.1267 -18.1188 -18.1155 -18.1067 -18.1028 -18.0948 -18.0276
    -9.5931  -9.3738  -9.2881  -9.2513  -9.1907  -9.1392  -9.1180  -9.0870
    -9.0313  -8.9717  -8.9598  -8.9451  -8.9021  -8.8814  -8.8209  -8.8006
    -8.7426  -8.6991  -8.6903  -8.6661  -8.5918  -8.5614  -8.5188  -8.4725
    -5.3391  -5.3299  -5.3242  -5.2546  -5.2394  -5.2327  -5.2278  -5.2234
    -5.2039  -5.1931  -5.1859  -5.1647  -5.0952  -5.0862  -5.0787  -4.9533
    -4.9314  -4.9142  -4.8888  -4.8786  -4.8715  -4.8475  -4.8442  -4.8260
    -4.2425  -4.0248  -3.9510  -3.7298  -3.6677  -3.4579  -3.3580  -3.1249
    -0.8314  -0.6831  -0.5731  -0.4228  -0.3258  -0.2352  -0.2048  -0.0772
     0.0076   0.0268   0.0888   0.1641   0.2409   0.3357   0.4091   0.4563
     0.4863   0.5292   0.5727   0.6223   0.6475   0.6851   0.7135   0.7357
     0.7985   0.8633   0.9149   0.9339   0.9785   1.0116   1.0391   1.0777
     1.1133   1.1450   1.1903   1.2150   1.2379   1.2804   1.3015   1.3389
     1.3579   1.3603   1.4311   1.4750   1.5212   1.5333   1.5561   1.5859
     1.6244   1.6313   1.6647   1.6892   1.7250   1.7477   1.7807   1.7991
     1.8196   1.8430   1.8557   1.8893   1.9162   1.9316   1.9772   2.0297
     2.0721   2.0995   2.1712   2.1828   2.2807   2.4059   2.5007   2.6473

          k =-0.3750 0.1250 0.3750 (132616 PWs)   bands (ev):

   -18.5672 -18.4919 -18.4875 -18.4852 -18.4754 -18.4714 -18.4681 -18.4431
   -18.4065 -18.3971 -18.3839 -18.3781 -18.3721 -18.3586 -18.3457 -18.3346
   -18.3313 -18.3312 -18.3267 -18.3226 -18.3223 -18.3150 -18.3120 -18.3105
   -18.2991 -18.2896 -18.2893 -18.2831 -18.2799 -18.2719 -18.2001 -18.1897
   -18.1809 -18.1777 -18.1664 -18.1539 -18.1481 -18.1404 -18.1389 -18.1343
   -18.1295 -18.1267 -18.1188 -18.1155 -18.1067 -18.1028 -18.0948 -18.0276
    -9.5930  -9.3757  -9.2857  -9.2456  -9.1965  -9.1490  -9.1094  -9.0897
    -9.0238  -8.9762  -8.9574  -8.9445  -8.9026  -8.8860  -8.8161  -8.8033
    -8.7409  -8.7030  -8.6880  -8.6656  -8.5912  -8.5625  -8.5185  -8.4725
    -5.3392  -5.3299  -5.3241  -5.2545  -5.2395  -5.2329  -5.2278  -5.2234
    -5.2039  -5.1931  -5.1859  -5.1647  -5.0952  -5.0861  -5.0787  -4.9533
    -4.9315  -4.9140  -4.8889  -4.8786  -4.8715  -4.8474  -4.8442  -4.8260
    -4.2430  -4.0237  -3.9509  -3.7287  -3.6723  -3.4527  -3.3587  -3.1269
    -0.8256  -0.6873  -0.5772  -0.4122  -0.3303  -0.2388  -0.1730  -0.0828
    -0.0341   0.0261   0.0653   0.1455   0.2813   0.3547   0.4036   0.4715
     0.4908   0.5368   0.5771   0.6198   0.6447   0.6678   0.7134   0.7427
     0.8086   0.8615   0.9057   0.9258   0.9899   1.0128   1.0368   1.0708
     1.1048   1.1179   1.1949   1.2098   1.2460   1.2761   1.3020   1.3334
     1.3643   1.3913   1.4526   1.4859   1.5065   1.5257   1.5424   1.5973
     1.6172   1.6428   1.6547   1.6878   1.7298   1.7430   1.7719   1.7978
     1.8090   1.8336   1.8733   1.8861   1.9285   1.9413   1.9657   2.0212
     2.0628   2.1053   2.1602   2.2170   2.2728   2.4106   2.4946   2.6419

          k = 0.3750-0.3750 0.1250 (132616 PWs)   bands (ev):

   -18.5672 -18.4919 -18.4876 -18.4852 -18.4754 -18.4714 -18.4681 -18.4431
   -18.4065 -18.3971 -18.3839 -18.3781 -18.3721 -18.3586 -18.3457 -18.3346
   -18.3313 -18.3312 -18.3267 -18.3226 -18.3223 -18.3150 -18.3120 -18.3105
   -18.2991 -18.2896 -18.2893 -18.2831 -18.2799 -18.2719 -18.2001 -18.1897
   -18.1809 -18.1777 -18.1664 -18.1539 -18.1481 -18.1404 -18.1389 -18.1343
   -18.1295 -18.1267 -18.1188 -18.1155 -18.1067 -18.1028 -18.0948 -18.0276
    -9.5929  -9.3726  -9.3041  -9.2406  -9.1800  -9.1410  -9.1162  -9.0916
    -9.0276  -8.9773  -8.9607  -8.9420  -8.8933  -8.8710  -8.8427  -8.8144
    -8.7449  -8.7007  -8.6808  -8.6582  -8.5913  -8.5588  -8.5139  -8.4804
    -5.3391  -5.3298  -5.3241  -5.2543  -5.2391  -5.2344  -5.2276  -5.2231
    -5.2037  -5.1931  -5.1855  -5.1647  -5.0954  -5.0862  -5.0776  -4.9527
    -4.9316  -4.9142  -4.8892  -4.8792  -4.8718  -4.8473  -4.8434  -4.8262
    -4.2303  -4.0027  -3.9214  -3.7369  -3.6669  -3.4823  -3.4155  -3.1594
    -0.7074  -0.5953  -0.4854  -0.4354  -0.3829  -0.3067  -0.1705  -0.1386
    -0.0304   0.0371   0.1019   0.1690   0.3080   0.3567   0.3909   0.4557
     0.5028   0.5222   0.5883   0.6075   0.6516   0.6841   0.7245   0.7527
     0.7868   0.8506   0.8845   0.9449   0.9643   1.0029   1.0180   1.0878
     1.1012   1.1381   1.1879   1.2216   1.2434   1.2666   1.3023   1.3349
     1.3564   1.4191   1.4497   1.4826   1.4986   1.5355   1.5656   1.5907
     1.6123   1.6254   1.6430   1.6931   1.7043   1.7156   1.7592   1.7973
     1.8149   1.8467   1.8572   1.8789   1.9266   1.9642   2.0000   2.0179
     2.0477   2.0795   2.1120   2.2009   2.2299   2.3217   2.4575   2.5549

          k =-0.3750-0.3750-0.1250 (132616 PWs)   bands (ev):

   -18.5672 -18.4919 -18.4876 -18.4852 -18.4754 -18.4714 -18.4681 -18.4431
   -18.4065 -18.3971 -18.3839 -18.3781 -18.3721 -18.3586 -18.3457 -18.3346
   -18.3313 -18.3312 -18.3267 -18.3226 -18.3223 -18.3150 -18.3120 -18.3105
   -18.2991 -18.2896 -18.2893 -18.2831 -18.2799 -18.2719 -18.2001 -18.1897
   -18.1809 -18.1777 -18.1664 -18.1539 -18.1481 -18.1404 -18.1389 -18.1343
   -18.1295 -18.1267 -18.1188 -18.1155 -18.1067 -18.1028 -18.0948 -18.0276
    -9.5927  -9.3745  -9.3036  -9.2349  -9.1819  -9.1453  -9.1202  -9.0861
    -9.0249  -8.9842  -8.9582  -8.9414  -8.8894  -8.8711  -8.8443  -8.8150
    -8.7462  -8.7019  -8.6811  -8.6546  -8.5923  -8.5586  -8.5142  -8.4803
    -5.3391  -5.3298  -5.3241  -5.2543  -5.2391  -5.2345  -5.2276  -5.2231
    -5.2038  -5.1930  -5.1856  -5.1647  -5.0954  -5.0861  -5.0776  -4.9526
    -4.9316  -4.9142  -4.8892  -4.8792  -4.8718  -4.8473  -4.8433  -4.8262
    -4.2273  -4.0201  -3.9047  -3.7327  -3.6712  -3.5007  -3.3950  -3.1638
    -0.6819  -0.6217  -0.4912  -0.4516  -0.3650  -0.3164  -0.1477  -0.1217
    -0.0248   0.0251   0.0700   0.1805   0.2824   0.3398   0.3927   0.4845
     0.4979   0.5466   0.5807   0.6319   0.6469   0.6886   0.7088   0.7521
     0.8080   0.8470   0.8838   0.9424   0.9597   0.9947   1.0296   1.0888
     1.1112   1.1365   1.1853   1.2160   1.2252   1.2461   1.3087   1.3359
     1.3697   1.4005   1.4605   1.4701   1.5029   1.5180   1.5732   1.5785
     1.6124   1.6259   1.6568   1.6941   1.7078   1.7275   1.7612   1.7904
     1.8232   1.8456   1.8598   1.9076   1.9219   1.9390   1.9727   2.0058
     2.0717   2.1028   2.1179   2.1782   2.2396   2.3446   2.4414   2.5478

          k = 0.3750 0.3750-0.1250 (132616 PWs)   bands (ev):

   -18.5672 -18.4919 -18.4876 -18.4852 -18.4754 -18.4714 -18.4681 -18.4431
   -18.4065 -18.3971 -18.3839 -18.3781 -18.3721 -18.3586 -18.3457 -18.3346
   -18.3313 -18.3312 -18.3267 -18.3226 -18.3223 -18.3150 -18.3120 -18.3105
   -18.2991 -18.2896 -18.2893 -18.2831 -18.2799 -18.2719 -18.2001 -18.1897
   -18.1809 -18.1777 -18.1664 -18.1539 -18.1481 -18.1404 -18.1389 -18.1343
   -18.1295 -18.1267 -18.1188 -18.1155 -18.1067 -18.1028 -18.0948 -18.0276
    -9.5928  -9.3737  -9.3052  -9.2330  -9.1762  -9.1572  -9.1158  -9.0864
    -9.0282  -8.9764  -8.9570  -8.9396  -8.8971  -8.8702  -8.8455  -8.8157
    -8.7434  -8.7027  -8.6791  -8.6563  -8.5924  -8.5586  -8.5140  -8.4803
    -5.3391  -5.3298  -5.3240  -5.2542  -5.2390  -5.2345  -5.2277  -5.2231
    -5.2038  -5.1930  -5.1856  -5.1647  -5.0954  -5.0861  -5.0776  -4.9527
    -4.9315  -4.9140  -4.8893  -4.8794  -4.8718  -4.8473  -4.8434  -4.8262
    -4.2273  -4.0226  -3.9017  -3.7325  -3.6717  -3.4996  -3.3958  -3.1644
    -0.7148  -0.5911  -0.4697  -0.4488  -0.3676  -0.3033  -0.1606  -0.1413
    -0.0316   0.0154   0.0605   0.1779   0.2967   0.3621   0.3894   0.4684
     0.5034   0.5464   0.6026   0.6241   0.6450   0.6864   0.7218   0.7347
     0.7997   0.8475   0.8903   0.9348   0.9707   1.0121   1.0243   1.0616
     1.1030   1.1541   1.1846   1.2151   1.2354   1.2624   1.2860   1.3471
     1.3667   1.4075   1.4554   1.4621   1.5072   1.5511   1.5602   1.5841
     1.6068   1.6292   1.6396   1.6846   1.7010   1.7238   1.7564   1.8041
     1.8180   1.8495   1.8791   1.8960   1.9252   1.9468   1.9691   1.9927
     2.0601   2.1049   2.1253   2.1863   2.2297   2.3348   2.4437   2.5583

          k =-0.3750 0.3750 0.1250 (132616 PWs)   bands (ev):

   -18.5672 -18.4919 -18.4876 -18.4852 -18.4754 -18.4714 -18.4681 -18.4431
   -18.4065 -18.3971 -18.3839 -18.3781 -18.3721 -18.3586 -18.3457 -18.3346
   -18.3313 -18.3312 -18.3267 -18.3226 -18.3223 -18.3150 -18.3120 -18.3105
   -18.2991 -18.2896 -18.2893 -18.2831 -18.2799 -18.2719 -18.2001 -18.1897
   -18.1809 -18.1777 -18.1664 -18.1539 -18.1481 -18.1404 -18.1389 -18.1343
   -18.1295 -18.1267 -18.1188 -18.1155 -18.1067 -18.1028 -18.0948 -18.0276
    -9.5928  -9.3746  -9.3015  -9.2374  -9.1755  -9.1555  -9.1196  -9.0859
    -9.0179  -8.9829  -8.9580  -8.9394  -8.9027  -8.8720  -8.8362  -8.8163
    -8.7438  -8.7030  -8.6798  -8.6572  -8.5912  -8.5595  -8.5137  -8.4803
    -5.3391  -5.3298  -5.3240  -5.2543  -5.2391  -5.2344  -5.2276  -5.2231
    -5.2037  -5.1931  -5.1855  -5.1648  -5.0954  -5.0861  -5.0776  -4.9527
    -4.9316  -4.9139  -4.8893  -4.8793  -4.8718  -4.8472  -4.8434  -4.8261
    -4.2308  -4.0013  -3.9232  -3.7373  -3.6642  -3.4842  -3.4140  -3.1607
    -0.6833  -0.6235  -0.4719  -0.4417  -0.3745  -0.3269  -0.1679  -0.1267
    -0.0373   0.0377   0.0905   0.1740   0.2983   0.3519   0.4158   0.4460
     0.5046   0.5283   0.5833   0.6269   0.6352   0.6881   0.7205   0.7502
     0.8098   0.8530   0.8821   0.9317   0.9702   0.9900   1.0318   1.0592
     1.1181   1.1396   1.1761   1.2092   1.2291   1.2610   1.3076   1.3568
     1.4022   1.4172   1.4556   1.4682   1.4998   1.5405   1.5512   1.5757
     1.5928   1.6307   1.6545   1.6982   1.7160   1.7239   1.7489   1.7949
     1.8111   1.8237   1.8579   1.8908   1.9355   1.9553   1.9960   2.0174
     2.0644   2.0809   2.1082   2.1716   2.2532   2.3387   2.4563   2.5383

          k =-0.3750-0.3750 0.3750 (132612 PWs)   bands (ev):

   -18.5672 -18.4919 -18.4875 -18.4852 -18.4754 -18.4714 -18.4681 -18.4431
   -18.4065 -18.3971 -18.3839 -18.3781 -18.3721 -18.3586 -18.3457 -18.3346
   -18.3313 -18.3312 -18.3267 -18.3226 -18.3223 -18.3150 -18.3120 -18.3105
   -18.2991 -18.2896 -18.2893 -18.2831 -18.2799 -18.2719 -18.2001 -18.1897
   -18.1809 -18.1777 -18.1664 -18.1539 -18.1481 -18.1404 -18.1389 -18.1343
   -18.1295 -18.1267 -18.1188 -18.1155 -18.1067 -18.1028 -18.0948 -18.0276
    -9.5903  -9.3666  -9.3010  -9.2296  -9.1942  -9.1723  -9.1202  -9.0979
    -9.0070  -8.9730  -8.9542  -8.9421  -8.8974  -8.8745  -8.8368  -8.8109
    -8.7400  -8.7015  -8.6836  -8.6534  -8.5927  -8.5588  -8.5169  -8.4820
    -5.3392  -5.3299  -5.3242  -5.2545  -5.2390  -5.2331  -5.2279  -5.2236
    -5.2038  -5.1931  -5.1857  -5.1648  -5.0953  -5.0857  -5.0778  -4.9531
    -4.9312  -4.9142  -4.8890  -4.8792  -4.8716  -4.8474  -4.8435  -4.8262
    -4.1191  -3.9427  -3.8447  -3.7825  -3.6648  -3.5778  -3.5436  -3.3287
    -0.5839  -0.4103  -0.2904  -0.2287  -0.2192  -0.1670  -0.1292  -0.0842
     0.0063   0.0163   0.1157   0.2074   0.2870   0.3229   0.3825   0.4077
     0.4710   0.5045   0.5428   0.5713   0.5967   0.6183   0.6624   0.7002
     0.8062   0.8488   0.8776   0.9117   0.9229   0.9696   0.9974   1.0126
     1.0514   1.0922   1.1277   1.1729   1.1900   1.2191   1.2463   1.2904
     1.3484   1.3699   1.4168   1.4326   1.4929   1.5223   1.5406   1.5983
     1.6264   1.6435   1.6830   1.6884   1.7130   1.7418   1.7771   1.8204
     1.8396   1.8551   1.8761   1.8874   1.9252   1.9522   1.9570   1.9831
     2.0383   2.0615   2.0947   2.1284   2.1549   2.1648   2.2572   2.3658

          k =-0.3750 0.3750-0.3750 (132612 PWs)   bands (ev):

   -18.5672 -18.4919 -18.4875 -18.4852 -18.4754 -18.4714 -18.4681 -18.4431
   -18.4065 -18.3971 -18.3839 -18.3781 -18.3721 -18.3586 -18.3457 -18.3346
   -18.3313 -18.3312 -18.3267 -18.3226 -18.3223 -18.3150 -18.3120 -18.3105
   -18.2991 -18.2896 -18.2893 -18.2831 -18.2799 -18.2719 -18.2001 -18.1897
   -18.1809 -18.1777 -18.1664 -18.1539 -18.1481 -18.1404 -18.1389 -18.1343
   -18.1295 -18.1267 -18.1188 -18.1155 -18.1067 -18.1028 -18.0948 -18.0276
    -9.5903  -9.3658  -9.2992  -9.2377  -9.1985  -9.1600  -9.1123  -9.1076
    -9.0040  -8.9756  -8.9589  -8.9446  -8.8901  -8.8761  -8.8351  -8.8106
    -8.7408  -8.7016  -8.6837  -8.6552  -8.5913  -8.5590  -8.5169  -8.4820
    -5.3392  -5.3298  -5.3242  -5.2547  -5.2391  -5.2330  -5.2278  -5.2236
    -5.2037  -5.1931  -5.1856  -5.1648  -5.0953  -5.0858  -5.0778  -4.9531
    -4.9312  -4.9144  -4.8889  -4.8791  -4.8716  -4.8474  -4.8435  -4.8263
    -4.1227  -3.9309  -3.8322  -3.8076  -3.6568  -3.5822  -3.5475  -3.3239
    -0.5679  -0.4100  -0.3155  -0.2986  -0.2266  -0.1607  -0.0976  -0.0441
     0.0111   0.0693   0.1284   0.2030   0.2784   0.3124   0.3522   0.4338
     0.4596   0.4882   0.5282   0.5635   0.5968   0.6144   0.6689   0.6936
     0.8114   0.8398   0.8666   0.9105   0.9401   0.9584   0.9963   1.0330
     1.0576   1.1026   1.1168   1.1523   1.2006   1.2264   1.2464   1.3096
     1.3192   1.3746   1.4089   1.4543   1.5049   1.5116   1.5516   1.5847
     1.6370   1.6514   1.6679   1.6937   1.7270   1.7483   1.7560   1.7989
     1.8333   1.8493   1.8898   1.8929   1.9214   1.9614   1.9677   1.9984
     2.0329   2.0568   2.0877   2.1289   2.1527   2.1660   2.2497   2.3656

          k = 0.3750-0.3750-0.3750 (132612 PWs)   bands (ev):

   -18.5672 -18.4919 -18.4875 -18.4852 -18.4754 -18.4714 -18.4681 -18.4431
   -18.4065 -18.3971 -18.3839 -18.3781 -18.3721 -18.3586 -18.3457 -18.3346
   -18.3313 -18.3312 -18.3267 -18.3226 -18.3223 -18.3150 -18.3120 -18.3105
   -18.2991 -18.2896 -18.2893 -18.2831 -18.2799 -18.2719 -18.2001 -18.1897
   -18.1809 -18.1777 -18.1664 -18.1539 -18.1481 -18.1404 -18.1389 -18.1343
   -18.1295 -18.1267 -18.1188 -18.1155 -18.1067 -18.1028 -18.0948 -18.0276
    -9.5903  -9.3683  -9.2949  -9.2352  -9.1945  -9.1734  -9.1184  -9.0983
    -8.9931  -8.9837  -8.9585  -8.9403  -8.9006  -8.8748  -8.8301  -8.8123
    -8.7396  -8.7040  -8.6827  -8.6541  -8.5913  -8.5598  -8.5167  -8.4820
    -5.3392  -5.3298  -5.3242  -5.2546  -5.2391  -5.2331  -5.2278  -5.2236
    -5.2037  -5.1931  -5.1856  -5.1649  -5.0953  -5.0857  -5.0778  -4.9531
    -4.9313  -4.9141  -4.8890  -4.8791  -4.8717  -4.8474  -4.8435  -4.8262
    -4.1240  -3.9203  -3.8608  -3.7877  -3.6487  -3.5999  -3.5363  -3.3264
    -0.5531  -0.4046  -0.3340  -0.3023  -0.2187  -0.1788  -0.0885  -0.0313
    -0.0125   0.0708   0.0962   0.2241   0.3004   0.3196   0.3565   0.4220
     0.4743   0.5011   0.5365   0.5546   0.5706   0.6112   0.6762   0.6931
     0.8309   0.8460   0.8782   0.8892   0.9275   0.9605   0.9965   1.0244
     1.0523   1.0885   1.1082   1.1502   1.1982   1.2275   1.2697   1.3058
     1.3375   1.3809   1.4215   1.4614   1.4916   1.5078   1.5412   1.5885
     1.6165   1.6411   1.6748   1.6990   1.7390   1.7524   1.7611   1.7850
     1.8404   1.8581   1.8666   1.9073   1.9232   1.9534   1.9826   1.9982
     2.0199   2.0547   2.0888   2.0950   2.1604   2.2140   2.2482   2.3448

     highest occupied level (ev):     3.0748

!    total energy              =   -2256.29670024 Ry
     estimated scf accuracy    <          2.1E-11 Ry

     The total energy is the sum of the following terms:
     one-electron contribution =    -988.60874346 Ry
     hartree contribution      =     622.21398413 Ry
     xc contribution           =    -647.46870384 Ry
     ewald contribution        =   -1242.43323708 Ry

     convergence has been achieved in  16 iterations

     Forces acting on atoms (cartesian axes, Ry/au):

     atom    1 type  1   force =    -0.00677999    0.00857182   -0.00480218
     atom    2 type  2   force =    -0.00368950   -0.00106322    0.01835356
     atom    3 type  3   force =    -0.01585049    0.00407809    0.00510958
     atom    4 type  3   force =    -0.00079767   -0.00666402    0.01108525
     atom    5 type  3   force =    -0.00515540    0.00548444   -0.00806798
     atom    6 type  1   force =    -0.00905574    0.01507739    0.00334557
     atom    7 type  2   force =     0.00130949   -0.00399653   -0.01370508
     atom    8 type  3   force =     0.00529723   -0.01488103    0.00554656
     atom    9 type  3   force =    -0.00173487    0.00497900   -0.00805765
     atom   10 type  3   force =     0.00335098   -0.00055942   -0.00227572
     atom   11 type  1   force =    -0.00919256    0.00281245   -0.00282074
     atom   12 type  2   force =    -0.00389835    0.00023856    0.01152930
     atom   13 type  3   force =     0.00622020    0.00356928   -0.00265879
     atom   14 type  3   force =    -0.00323606    0.00145028   -0.00271130
     atom   15 type  3   force =     0.00424420   -0.00696837   -0.00340905
     atom   16 type  1   force =    -0.00419964   -0.00671772   -0.00081183
     atom   17 type  2   force =    -0.01019548    0.00270022   -0.01745706
     atom   18 type  3   force =     0.00826456    0.00030577    0.00202126
     atom   19 type  3   force =    -0.00501192   -0.00253327    0.01704918
     atom   20 type  3   force =     0.00370273    0.00577213   -0.00372724
     atom   21 type  1   force =     0.00188927    0.00282345   -0.00329631
     atom   22 type  2   force =     0.01126408    0.00762755   -0.00230924
     atom   23 type  3   force =     0.00096103    0.00556165   -0.01191193
     atom   24 type  3   force =     0.00070975   -0.01054105    0.00052566
     atom   25 type  3   force =    -0.00486893    0.01060530    0.00060204
     atom   26 type  1   force =    -0.00713909    0.00202958    0.00554851
     atom   27 type  2   force =    -0.00099686    0.03441633   -0.00356949
     atom   28 type  3   force =     0.00048661   -0.00286866    0.01471462
     atom   29 type  3   force =     0.01772403   -0.02050342   -0.00346495
     atom   30 type  3   force =    -0.00062259    0.01200766   -0.00415672
     atom   31 type  1   force =     0.00264230   -0.01267332   -0.00173449
     atom   32 type  2   force =     0.00639554    0.00041118   -0.00164125
     atom   33 type  3   force =    -0.00060787    0.00061686   -0.00433431
     atom   34 type  3   force =     0.00685904    0.00032896   -0.00593939
     atom   35 type  3   force =     0.00119184   -0.00557039    0.00321838
     atom   36 type  1   force =     0.00296109   -0.00383365    0.00343654
     atom   37 type  2   force =     0.00932915   -0.01850808    0.01084563
     atom   38 type  3   force =    -0.00557734    0.00201377    0.00008647
     atom   39 type  3   force =     0.00381459   -0.00081356    0.00033451
     atom   40 type  3   force =    -0.00000735   -0.01478599   -0.00048993

     Total force =     0.087162     Total SCF correction =     0.000024


     Computing stress (Cartesian axis) and pressure

          total   stress  (Ry/bohr**3)                   (kbar)     P=       -7.98
  -0.00006618   0.00000038  -0.00000496           -9.73        0.06       -0.73
   0.00000038  -0.00004190  -0.00000143            0.06       -6.16       -0.21
  -0.00000496  -0.00000143  -0.00005471           -0.73       -0.21       -8.05

 
     init_run     :     19.90s CPU     17.10s WALL (       1 calls)
     electrons    :    214.10s CPU    225.97s WALL (       1 calls)
     forces       :      8.71s CPU      3.96s WALL (       1 calls)
     stress       :     31.74s CPU     31.25s WALL (       1 calls)

     Called by init_run:
     wfcinit      :     12.12s CPU     14.03s WALL (       1 calls)
                                       14.03s GPU  (       1 calls)
     potinit      :      4.43s CPU      1.41s WALL (       1 calls)
     hinit0       :      2.80s CPU      0.99s WALL (       1 calls)

     Called by electrons:
     c_bands      :    127.78s CPU    180.67s WALL (      17 calls)
     sum_band     :     23.20s CPU     22.32s WALL (      17 calls)
                                       22.32s GPU  (      17 calls)
     v_of_rho     :     58.08s CPU     17.69s WALL (      17 calls)
     mix_rho      :      6.95s CPU      5.43s WALL (      17 calls)

     Called by c_bands:
     init_us_2    :      2.50s CPU      3.31s WALL (     296 calls)
                                        3.31s GPU  (     296 calls)
     cegterg      :     84.59s CPU    134.46s WALL (     136 calls)

     Called by *egterg:
     cdiaghg      :     14.22s CPU     25.96s WALL (     663 calls)
                                       25.92s GPU  (     663 calls)
     h_psi        :     57.47s CPU     77.75s WALL (     679 calls)
                                       77.28s GPU  (     679 calls)
     g_psi        :      0.00s CPU      0.38s WALL (     535 calls)
                                        0.37s GPU  (     535 calls)

     Called by h_psi:
     h_psi:calbec :      0.33s CPU     10.46s WALL (     679 calls)
                                       10.45s GPU  (     679 calls)
     vloc_psi     :     41.99s CPU     56.76s WALL (     679 calls)
                                       55.79s GPU  (     679 calls)
     add_vuspsi   :      0.34s CPU     10.45s WALL (     679 calls)
                                       10.44s GPU  (     679 calls)

     General routines
     calbec       :      0.33s CPU      0.40s WALL (     719 calls)
     fft          :     26.89s CPU      6.86s WALL (     195 calls)
                                        0.00s GPU  (       6 calls)
     ffts         :      2.75s CPU      0.72s WALL (      17 calls)
     fftw         :      0.68s CPU     65.83s WALL (   11038 calls)
                                       49.10s GPU  (   11038 calls)
 
     Parallel routines
 
     PWSCF        :   4m35.10s CPU   4m39.06s WALL

 
   This run was terminated on:  20:45:25  22Apr2021            

=------------------------------------------------------------------------------=
   JOB DONE.
=------------------------------------------------------------------------------=
